 vasp.6.4.3 19Mar24 (build Jan 23 2025 16:17:14) complex                        
  
 executed on             LinuxIFC date 2025.02.20  01:15:11
 running   24 mpi-ranks, on    1 nodes
 distrk:  each k-point on   24 cores,    1 groups
 distr:  one band on NCORE=   1 cores,   24 groups


--------------------------------------------------------------------------------------------------------


 INCAR:
   ALGO = Fast
   EDIFF = 0.00030000000000000003
   ENCUT = 520.0
   ISMEAR = -5
   ISPIN = 2
   LASPH = True
   LCHARG = True
   LMAXMIX = 4
   LORBIT = 11
   LREAL = False
   LWAVE = True
   MAGMOM = 6*0.6
   NELM = 100
   NSW = 0
   PREC = Accurate
   SIGMA = 0.05

 POTCAR:    PAW_PBE Co 02Aug2007                  
 POTCAR:    PAW_PBE Sn_d 06Sep2000                
 -----------------------------------------------------------------------------
|                                                                             |
|           W    W    AA    RRRRR   N    N  II  N    N   GGGG   !!!           |
|           W    W   A  A   R    R  NN   N  II  NN   N  G    G  !!!           |
|           W    W  A    A  R    R  N N  N  II  N N  N  G       !!!           |
|           W WW W  AAAAAA  RRRRR   N  N N  II  N  N N  G  GGG   !            |
|           WW  WW  A    A  R   R   N   NN  II  N   NN  G    G                |
|           W    W  A    A  R    R  N    N  II  N    N   GGGG   !!!           |
|                                                                             |
|     For optimal performance we recommend to set                             |
|       NCORE = 2 up to number-of-cores-per-socket                            |
|     NCORE specifies how many cores store one orbital (NPAR=cpu/NCORE).      |
|     This setting can greatly improve the performance of VASP for DFT.       |
|     The default, NCORE=1 might be grossly inefficient on modern             |
|     multi-core architectures or massively parallel machines. Do your        |
|     own testing! More info at https://www.vasp.at/wiki/index.php/NCORE      |
|     Unfortunately you need to use the default for GW and RPA                |
|     calculations (for HF NCORE is supported but not extensively tested      |
|     yet).                                                                   |
|                                                                             |
 -----------------------------------------------------------------------------

 POTCAR:    PAW_PBE Co 02Aug2007                  
   SHA256 =  0e690c60710354995174544f52f9f2c30879afabeffe3b3fbd4001cb294e56d4 Co/POTCAR             
   COPYR  = (c) Copyright 02Aug2007 Georg Kresse                                                    
   COPYR  = This file is part of the software VASP. Any use, copying, and all other rights are regul
   COPYR  = If you do not have a valid VASP license, you may not use, copy or distribute this file. 
   VRHFIN =Co: d8 s1                                                                                
   LEXCH  = PE                                                                                      
   EATOM  =   813.3670 eV,   59.7808 Ry                                                             
                                                                                                    
   TITEL  = PAW_PBE Co 02Aug2007                                                                    
   LULTRA =        F    use ultrasoft PP ?                                                          
   IUNSCR =        1    unscreen: 0-lin 1-nonlin 2-no                                               
   RPACOR =    2.000    partial core radius                                                         
   POMASS =   58.933; ZVAL   =    9.000    mass and valenz                                          
   RCORE  =    2.300    outmost cutoff radius                                                       
   RWIGS  =    2.460; RWIGS  =    1.302    wigner-seitz radius (au A)                               
   ENMAX  =  267.968; ENMIN  =  200.976 eV                                                          
   RCLOC  =    1.203    cutoff for local pot                                                        
   LCOR   =        T    correct aug charges                                                         
   LPAW   =        T    paw PP                                                                      
   EAUG   =  477.818                                                                                
   DEXC   =    0.000                                                                                
   RMAX   =    2.360    core radius for proj-oper                                                   
   RAUG   =    1.300    factor for augmentation sphere                                              
   RDEP   =    2.393    radius for radial grids                                                     
   RDEPT  =    1.864    core radius for aug-charge                                                  
                                                                                                    
   Atomic configuration                                                                             
    9 entries                                                                                       
     n  l   j            E        occ.                                                              
     1  0  0.50     -7587.6674   2.0000                                                             
     2  0  0.50      -893.6084   2.0000                                                             
     2  1  1.50      -764.5805   6.0000                                                             
     3  0  0.50       -97.5973   2.0000                                                             
     3  1  1.50       -60.9648   6.0000                                                             
     3  2  2.50        -4.2382   8.0000                                                             
     4  0  0.50        -4.3746   1.0000                                                             
     4  1  1.50        -4.0817   0.0000                                                             
     4  3  2.50        -1.3606   0.0000                                                             
   Description                                                                                      
     l       E           TYP  RCUT    TYP  RCUT                                                     
     2     -4.2382362     23  2.300                                                                 
     2     -5.5988188     23  2.300                                                                 
     0     -4.3745797     23  2.300                                                                 
     0      5.7660125     23  2.300                                                                 
     1     -2.7211652     23  2.300                                                                 
     1     16.9860234     23  2.300                                                                 
  local pseudopotential read in
  partial core-charges read in
  partial kinetic energy density read in
  atomic valenz-charges read in
  non local Contribution for L=           2  read in
    real space projection operators read in
  non local Contribution for L=           2  read in
    real space projection operators read in
  non local Contribution for L=           0  read in
    real space projection operators read in
  non local Contribution for L=           0  read in
    real space projection operators read in
  non local Contribution for L=           1  read in
    real space projection operators read in
  non local Contribution for L=           1  read in
    real space projection operators read in
    PAW grid and wavefunctions read in
 
   number of l-projection  operators is LMAX  =           6
   number of lm-projection operators is LMMAX =          18
 
 POTCAR:    PAW_PBE Sn_d 06Sep2000                
   SHA256 =  385b269c1887fa92a2bd1b595c4ea1490c7eb92f9f3d87257729a4a813cde741 Sn_d/POTCAR           
   COPYR  = (c) Copyright 06Sep2000 Georg Kresse                                                    
   COPYR  = This file is part of the software VASP. Any use, copying, and all other rights are regul
   COPYR  = If you do not have a valid VASP license, you may not use, copy or distribute this file. 
   VRHFIN =Sn: s2p2                                                                                 
   LEXCH  = PE                                                                                      
   EATOM  =  1893.1092 eV,  139.1396 Ry                                                             
                                                                                                    
   TITEL  = PAW_PBE Sn_d 06Sep2000                                                                  
   LULTRA =        F    use ultrasoft PP ?                                                          
   IUNSCR =        1    unscreen: 0-lin 1-nonlin 2-no                                               
   RPACOR =    2.300    partial core radius                                                         
   POMASS =  118.710; ZVAL   =   14.000    mass and valenz                                          
   RCORE  =    2.500    outmost cutoff radius                                                       
   RWIGS  =    2.960; RWIGS  =    1.566    wigner-seitz radius (au A)                               
   ENMAX  =  241.083; ENMIN  =  180.812 eV                                                          
   ICORE  =        3    local potential                                                             
   LCOR   =        T    correct aug charges                                                         
   LPAW   =        T    paw PP                                                                      
   EAUG   =  439.825                                                                                
   DEXC   =    0.000                                                                                
   RMAX   =    2.560    core radius for proj-oper                                                   
   RAUG   =    1.300    factor for augmentation sphere                                              
   RDEP   =    2.659    radius for radial grids                                                     
   RDEPT  =    2.046    core radius for aug-charge                                                  
                                                                                                    
   Atomic configuration                                                                             
   12 entries                                                                                       
     n  l   j            E        occ.                                                              
     1  0  0.50    -29007.2859   2.0000                                                             
     2  0  0.50     -4378.8056   2.0000                                                             
     2  1  1.50     -3930.4293   6.0000                                                             
     3  0  0.50      -845.0264   2.0000                                                             
     3  1  1.50      -698.5725   6.0000                                                             
     3  2  2.50      -473.2839  10.0000                                                             
     4  0  0.50      -133.9036   2.0000                                                             
     4  1  1.50       -89.6752   6.0000                                                             
     4  2  2.50       -25.8375  10.0000                                                             
     5  0  0.50       -10.5484   2.0000                                                             
     5  1  0.50        -3.6940   2.0000                                                             
     4  3  2.50        -2.7416   0.0000                                                             
   Description                                                                                      
     l       E           TYP  RCUT    TYP  RCUT                                                     
     2    -25.8374624     23  2.500                                                                 
     2     -5.4423304     23  2.500                                                                 
     0    -10.5483727     23  2.500                                                                 
     0     13.6058260     23  2.500                                                                 
     1     -3.6939829     23  2.500                                                                 
     1      1.9821976     23  2.500                                                                 
     3     -1.3605826      7  2.500                                                                 
  local pseudopotential read in
  partial core-charges read in
  partial kinetic energy density read in
  atomic valenz-charges read in
  non local Contribution for L=           2  read in
    real space projection operators read in
  non local Contribution for L=           2  read in
    real space projection operators read in
  non local Contribution for L=           0  read in
    real space projection operators read in
  non local Contribution for L=           0  read in
    real space projection operators read in
  non local Contribution for L=           1  read in
    real space projection operators read in
  non local Contribution for L=           1  read in
    real space projection operators read in
    PAW grid and wavefunctions read in
 
   number of l-projection  operators is LMAX  =           6
   number of lm-projection operators is LMMAX =          18
 
  PAW_PBE Co 02Aug2007                  :
 energy of atom  1       EATOM= -813.3670
 kinetic energy error for atom=    0.0028 (will be added to EATOM!!)
  PAW_PBE Sn_d 06Sep2000                :
 energy of atom  2       EATOM=-1893.1092
 kinetic energy error for atom=    0.0026 (will be added to EATOM!!)
 
 
 POSCAR: Co3 Sn3
  positions in direct lattice
  No initial velocities read in


 exchange-correlation table for PE
   RHO(1)=    0.500       N(1)  =     2000
   RHO(2)=  100.500       N(2)  =     4000
 


--------------------------------------------------------------------------------------------------------


 ion  position               nearest neighbor table
   1  0.000  0.500  0.000-   4 2.61   5 2.61   4 2.61   5 2.61   6 2.65   2 2.65   3 2.65   6 2.65
                             2 2.65   3 2.65
   2  0.500  0.500  0.000-   4 2.61   5 2.61   4 2.61   5 2.61   6 2.65   1 2.65   3 2.65   3 2.65
                             1 2.65   6 2.65
   3  0.500  0.000  0.000-   4 2.61   5 2.61   4 2.61   5 2.61   6 2.65   1 2.65   2 2.65   2 2.65
                             6 2.65   1 2.65
   4  0.667  0.333  0.500-   2 2.61   2 2.61   3 2.61   1 2.61   1 2.61   3 2.61   5 3.06   5 3.06
                             5 3.06   6 3.72   6 3.72   6 3.72   6 3.72   6 3.72   6 3.72
   5  0.333  0.667  0.500-   2 2.61   2 2.61   3 2.61   1 2.61   1 2.61   3 2.61   4 3.06   4 3.06
                             4 3.06   6 3.72   6 3.72   6 3.72   6 3.72   6 3.72   6 3.72
   6  0.000  0.000  0.000-   1 2.65   2 2.65   3 2.65   1 2.65   3 2.65   2 2.65   5 3.72   5 3.72
                             4 3.72   4 3.72   4 3.72   5 3.72   5 3.72   4 3.72   5 3.72   4 3.72
 
  LATTYP: Found a hexagonal cell.
 ALAT       =     5.2924177375
 C/A-ratio  =     0.8006616635
  
  Lattice vectors:
  
 A1 = (   2.6462088688,  -4.5833682081,   0.0000000000)
 A2 = (   2.6462088688,   4.5833682081,   0.0000000000)
 A3 = (   0.0000000000,   0.0000000000,   4.2374359894)


Analysis of symmetry for initial positions (statically):
=====================================================================
 Subroutine PRICEL returns:
 Original cell was already a primitive cell.
 

 Routine SETGRP: Setting up the symmetry group for a 
 hexagonal supercell.


 Subroutine GETGRP returns: Found 24 space group operations
 (whereof 24 operations were pure point group operations)
 out of a pool of 24 trial point group operations.


The static configuration has the point symmetry D_6h.


Analysis of symmetry for dynamics (positions and initial velocities):
=====================================================================
 Subroutine PRICEL returns:
 Original cell was already a primitive cell.
 

 Routine SETGRP: Setting up the symmetry group for a 
 hexagonal supercell.


 Subroutine GETGRP returns: Found 24 space group operations
 (whereof 24 operations were pure point group operations)
 out of a pool of 24 trial point group operations.


The dynamic configuration has the point symmetry D_6h.


Analysis of structural, dynamic, and magnetic symmetry:
=====================================================================
 Subroutine PRICEL returns:
 Original cell was already a primitive cell.
 

 Routine SETGRP: Setting up the symmetry group for a 
 hexagonal supercell.


 Subroutine GETGRP returns: Found 24 space group operations
 (whereof 24 operations were pure point group operations)
 out of a pool of 24 trial point group operations.


The overall configuration has the point symmetry D_6h.


 Subroutine INISYM returns: Found 24 space group operations
 (whereof 24 operations are pure point group operations),
 and found     1 'primitive' translations


----------------------------------------------------------------------------------------

                                     Primitive cell                                     

  volume of cell :     102.7879

  direct lattice vectors                    reciprocal lattice vectors
     2.646208869 -4.583368208  0.000000000     0.188949559 -0.109090079  0.000000000
     2.646208869  4.583368208  0.000000000     0.188949559  0.109090079  0.000000000
     0.000000000  0.000000000  4.237435989     0.000000000  0.000000000  0.235991765

  length of vectors
     5.292417738  5.292417738  4.237435989     0.218180158  0.218180158  0.235991765

  position of ions in fractional coordinates (direct lattice)
     0.000000000  0.500000000  0.000000000
     0.500000000  0.500000000  0.000000000
     0.500000000  0.000000000  0.000000000
     0.666666667  0.333333333  0.500000000
     0.333333333  0.666666667  0.500000000
     0.000000000  0.000000000  0.000000000

  ion indices of the primitive-cell ions
   primitive index   ion index
                 1           1
                 2           2
                 3           3
                 4           4
                 5           5
                 6           6

----------------------------------------------------------------------------------------

 
 
 KPOINTS: pymatgen with grid density = 145 / numbe

Automatic generation of k-mesh.
 Grid dimensions read from file:
 generate k-points for:    2    2    3

 Generating k-lattice:

  Cartesian coordinates                     Fractional coordinates (reciprocal lattice)
     0.094474780 -0.054545040  0.000000000     0.500000000 -0.000000000  0.000000000
     0.094474780  0.054545040  0.000000000    -0.000000000  0.500000000  0.000000000
     0.000000000  0.000000000  0.078663922     0.000000000  0.000000000  0.333333333

  Length of vectors
     0.109090079  0.109090079  0.078663922

  Shift w.r.t. Gamma in fractional coordinates (k-lattice)
     0.000000000  0.000000000  0.000000000

 TETIRR: Found     13 inequivalent tetrahedra from       72
 
 Subroutine IBZKPT returns following result:
 ===========================================
 
 Found      4 irreducible k-points:
 
 Following reciprocal coordinates:
            Coordinates               Weight
  0.000000  0.000000  0.000000      1.000000
  0.500000  0.000000  0.000000      3.000000
  0.000000  0.000000  0.333333      2.000000
  0.500000  0.000000  0.333333      6.000000
 
 Following cartesian coordinates:
            Coordinates               Weight
  0.000000  0.000000  0.000000      1.000000
  0.094475 -0.054545  0.000000      3.000000
  0.000000  0.000000  0.078664      2.000000
  0.094475 -0.054545  0.078664      6.000000
 


--------------------------------------------------------------------------------------------------------




 Dimension of arrays:
   k-points           NKPTS =      4   k-points in BZ     NKDIM =      4   number of bands    NBANDS=     48
   number of dos      NEDOS =    301   number of ions     NIONS =      6
   non local maximal  LDIM  =      6   non local SUM 2l+1 LMDIM =     18
   total plane-waves  NPLWV =  51200
   max r-space proj   IRMAX =      1   max aug-charges    IRDMAX=  22442
   dimension x,y,z NGX =    40 NGY =   40 NGZ =   32
   dimension x,y,z NGXF=    80 NGYF=   80 NGZF=   64
   support grid    NGXF=    80 NGYF=   80 NGZF=   64
   ions per type =               3   3
   NGX,Y,Z   is equivalent  to a cutoff of  12.56, 12.56, 12.55 a.u.
   NGXF,Y,Z  is equivalent  to a cutoff of  25.13, 25.13, 25.11 a.u.

 SYSTEM =  unknown system                          
 POSCAR =  Co3 Sn3                                 

 Startparameter for this run:
   NWRITE =      2    write-flag & timer
   PREC   = accura    normal or accurate (medium, high low for compatibility)
   ISTART =      0    job   : 0-new  1-cont  2-samecut
   ICHARG =      2    charge: 1-file 2-atom 10-const
   ISPIN  =      2    spin polarized calculation?
   LNONCOLLINEAR =      F non collinear calculations
   LSORBIT =      F    spin-orbit coupling
   INIWAV =      1    electr: 0-lowe 1-rand  2-diag
   LASPH  =      T    aspherical Exc in radial PAW
 Electronic Relaxation 1
   ENCUT  =  520.0 eV  38.22 Ry    6.18 a.u.   9.84  9.84  7.88*2*pi/ulx,y,z
   ENINI  =  520.0     initial cutoff
   ENAUG  =  477.8 eV  augmentation charge cutoff
   NELM   =    100;   NELMIN=  2; NELMDL= -5     # of ELM steps 
   EDIFF  = 0.3E-03   stopping-criterion for ELM
   LREAL  =      F    real-space projection
   NLSPLINE    = F    spline interpolate recip. space projectors
   LCOMPAT=      F    compatible to vasp.4.4
   GGA_COMPAT  = T    GGA compatible to vasp.4.4-vasp.4.6
   LMAXPAW     = -100 max onsite density
   LMAXMIX     =    4 max onsite mixed and CHGCAR
   VOSKOWN=      0    Vosko Wilk Nusair interpolation
   ROPT   =    0.00000   0.00000
 Ionic relaxation
   EDIFFG = 0.3E-02   stopping-criterion for IOM
   NSW    =      0    number of steps for IOM
   NBLOCK =      1;   KBLOCK =      1    inner block; outer block 
   IBRION =     -1    ionic relax: 0-MD 1-quasi-New 2-CG
   NFREE  =      0    steps in history (QN), initial steepest desc. (CG)
   ISIF   =      2    stress and relaxation
   IWAVPR =     10    prediction:  0-non 1-charg 2-wave 3-comb
   ISYM   =      2    0-nonsym 1-usesym 2-fastsym
   LCORR  =      T    Harris-Foulkes like correction to forces

   POTIM  = 0.5000    time-step for ionic-motion
   TEIN   =    0.0    initial temperature
   TEBEG  =    0.0;   TEEND  =   0.0 temperature during run
   SMASS  =  -3.00    Nose mass-parameter (am)
   estimated Nose-frequenzy (Omega)   =  0.10E-29 period in steps = 0.13E+47 mass=  -0.640E-27a.u.
   SCALEE = 1.0000    scale energy and forces
   NPACO  =    256;   APACO  = 10.0  distance and # of slots for P.C.
   PSTRESS=    0.0 pullay stress

  Mass of Ions in am
   POMASS =  58.93118.71
  Ionic Valenz
   ZVAL   =   9.00 14.00
  Atomic Wigner-Seitz radii
   RWIGS  =  -1.00 -1.00
  virtual crystal weights 
   VCA    =   1.00  1.00
   NELECT =      69.0000    total number of electrons
   NUPDOWN=      -1.0000    fix difference up-down

 DOS related values:
   EMIN   =  10.00;   EMAX   =-10.00  energy-range for DOS
   EFERMI =   0.00;   METHOD = LEGACY      
   ISMEAR =    -5;   SIGMA  =   0.05  broadening in eV -4-tet -1-fermi 0-gaus

 Electronic relaxation 2 (details)
   IALGO  =     68    algorithm
   LDIAG  =      T    sub-space diagonalisation (order eigenvalues)
   LSUBROT=      F    optimize rotation matrix (better conditioning)
   TURBO    =      0    0=normal 1=particle mesh
   IRESTART =      0    0=no restart 2=restart with 2 vectors
   NREBOOT  =      0    no. of reboots
   NMIN     =      0    reboot dimension
   EREF     =   0.00    reference energy to select bands
   IMIX   =      4    mixing-type and parameters
     AMIX     =   0.40;   BMIX     =  1.00
     AMIX_MAG =   1.60;   BMIX_MAG =  1.00
     AMIN     =   0.10
     WC   =   100.;   INIMIX=   1;  MIXPRE=   1;  MAXMIX= -45

 Intra band minimization:
   WEIMIN = 0.0000     energy-eigenvalue tresh-hold
   EBREAK =  0.16E-05  absolut break condition
   DEPER  =   0.30     relativ break condition  

   TIME   =   0.40     timestep for ELM

  volume/ion in A,a.u.               =      17.13       115.61
  Fermi-wavevector in a.u.,A,eV,Ry     =   1.433432  2.708794 27.956274  2.054728
  Thomas-Fermi vector in A             =   2.552951
 
 Write flags
   LWAVE        =      T    write WAVECAR
   LDOWNSAMPLE  =      F    k-point downsampling of WAVECAR
   LCHARG       =      T    write CHGCAR
   LVTOT        =      F    write LOCPOT, total local potential
   LVHAR        =      F    write LOCPOT, Hartree potential only
   WRT_POTENTIAL= false  ! write potential to hdf5 file
   LELF         =      F    write electronic localiz. function (ELF)
   LORBIT       =     11    0 simple, 1 ext, 2 COOP (PROOUT), +10 PAW based schemes


 Dipole corrections
   LMONO      =      F    monopole corrections only (constant potential shift)
   LDIPOL     =      F    correct potential (dipole corrections)
   IDIPOL     =      0    1-x, 2-y, 3-z, 4-all directions 
   EPSILON    =  1.0000000 bulk dielectric constant
   LVACPOTAV  =      F  vacuum potentials using an averaging scheme for the charge density
   VACPOTFLAT =  0.1000000 required flatness to determine vacuum potential
 Exchange correlation treatment:
   GGA     = PE    functional components
   XC_C    = 1    coefficients multiplying the functional components
   LIBXC   =     F    Libxc                    
   VOSKOWN =     0    Vosko Wilk Nusair interpolation
   LHFCALC =     F    Hartree Fock is set to
   LHFONE  =     F    Hartree Fock one center treatment
   AEXX    =    0.0000 exact exchange contribution

 Parameters of functionals:
   PE:
     No parameter
 
 Van der Waals corrections
   IVDW    =     0    specifies the selected vdW correction

 Linear response parameters
   LEPSILON=     F    determine dielectric tensor
   LRPA    =     F    only Hartree local field effects (RPA)
   LNABLA  =     F    use nabla operator in PAW spheres
   LVEL    =     F    velocity operator in full k-point grid
   CSHIFT  =0.1000    complex shift for real part using Kramers Kronig
   OMEGAMAX=  -1.0    maximum frequency
   DEG_THRESHOLD= 0.2000000E-02 threshold for treating states as degnerate
   RTIME   =   -0.100 relaxation time in fs
  (WPLASMAI=    0.000 imaginary part of plasma frequency in eV, 0.658/RTIME)
   DFIELD  = 0.0000000 0.0000000 0.0000000 field for delta impulse in time
 
  Optional k-point grid parameters
   LKPOINTS_OPT  =     F    use optional k-point grid
   KPOINTS_OPT_MODE=     1    mode for optional k-point grid
 
 Orbital magnetization related:
   ORBITALMAG=     F  switch on orbital magnetization
   LCHIMAG   =     F  perturbation theory with respect to B field
   DQ        =  0.001000  dq finite difference perturbation B field
   LLRAUG    =     F  two centre corrections for induced B field
   LBONE     =     F  B-component reconstruction in AE one-centre
   LVGVCALC  =     T  calculate vGv susceptibility
   LVGVAPPL  =     F  apply vGv susceptibility instead of pGv for G=0

 Random number generation:
   RANDOM_GENERATOR = DEFAULT
   PCG_SEED         = not used


--------------------------------------------------------------------------------------------------------


 Static calculation
 charge density and potential will be updated during run
 spin polarized calculation
 RMM-DIIS sequential band-by-band and
  variant of blocked Davidson during initial phase
 perform sub-space diagonalisation
    before iterative eigenvector-optimisation
 modified Broyden-mixing scheme, WC =      100.0
 initial mixing is a Kerker type mixing with AMIX =  0.4000 and BMIX =      1.0000
 Hartree-type preconditioning will be used
 using additional bands           13
 reciprocal scheme for non local part
 use partial core corrections
 calculate Harris-corrections to forces 
   (improved forces if not selfconsistent)
 use gradient corrections 
 use of overlap-Matrix (Vanderbilt PP)
 Fermi weights with tetrahedron method with Bloechl corrections


--------------------------------------------------------------------------------------------------------


  energy-cutoff  :      520.00
  volume of cell :      102.79
      direct lattice vectors                 reciprocal lattice vectors
     2.646208869 -4.583368208  0.000000000     0.188949559 -0.109090079  0.000000000
     2.646208869  4.583368208  0.000000000     0.188949559  0.109090079  0.000000000
     0.000000000  0.000000000  4.237435989     0.000000000  0.000000000  0.235991765

  length of vectors
     5.292417738  5.292417738  4.237435989     0.218180158  0.218180158  0.235991765


 
 k-points in units of 2pi/SCALE and weight: pymatgen with grid density = 145 / numbe
   0.00000000 -0.00000000  0.00000000       0.083
   0.09447478 -0.05454504  0.00000000       0.250
   0.00000000 -0.00000000  0.07866392       0.167
   0.09447478 -0.05454504  0.07866392       0.500
 
 k-points in reciprocal lattice and weights: pymatgen with grid density = 145 / numbe
   0.00000000  0.00000000  0.00000000       0.083
   0.50000000  0.00000000  0.00000000       0.250
   0.00000000  0.00000000  0.33333333       0.167
   0.50000000  0.00000000  0.33333333       0.500
 
 position of ions in fractional coordinates (direct lattice) 
   0.00000000  0.50000000  0.00000000
   0.50000000  0.50000000  0.00000000
   0.50000000  0.00000000  0.00000000
   0.66666667  0.33333333  0.50000000
   0.33333333  0.66666667  0.50000000
   0.00000000  0.00000000  0.00000000
 
 position of ions in cartesian coordinates  (Angst):
   1.32310443  2.29168410  0.00000000
   2.64620887  0.00000000  0.00000000
   1.32310443 -2.29168410  0.00000000
   2.64620887 -1.52778940  2.11871799
   2.64620887  1.52778940  2.11871799
   0.00000000  0.00000000  0.00000000
 


--------------------------------------------------------------------------------------------------------


 k-point     1 :   0.0000 0.0000 0.0000  plane waves:    2763
 k-point     2 :   0.5000 0.0000 0.0000  plane waves:    2760
 k-point     3 :   0.0000 0.0000 0.3333  plane waves:    2740
 k-point     4 :   0.5000 0.0000 0.3333  plane waves:    2776

 maximum and minimum number of plane-waves per node :      2776     2740

 maximum number of plane-waves:      2776
 maximum index in each direction: 
   IXMAX=    9   IYMAX=    9   IZMAX=    7
   IXMIN=  -10   IYMIN=   -9   IZMIN=   -8


 serial   3D FFT for wavefunctions
 parallel 3D FFT for charge:
    minimum data exchange during FFTs selected (reduces bandwidth)


 total amount of memory used by VASP MPI-rank0    41130. kBytes
=======================================================================

   base      :      30000. kBytes
   nonl-proj :       3474. kBytes
   fftplans  :        901. kBytes
   grid      :       5826. kBytes
   one-center:        186. kBytes
   wavefun   :        743. kBytes
 
     INWAV:  cpu time      0.0000: real time      0.0000
 Broyden mixing: mesh for mixing (old mesh)
   NGX = 19   NGY = 19   NGZ = 15
  (NGX  = 80   NGY  = 80   NGZ  = 64)
  gives a total of   5415 points

 initial charge density was supplied:
 charge density of overlapping atoms calculated
 number of electron      69.0000000 magnetization       3.6000000
 keeping initial charge density in first step


--------------------------------------------------------------------------------------------------------


 Maximum index for augmentation-charges         1550 (set IRDMAX)


--------------------------------------------------------------------------------------------------------


 First call to EWALD:  gamma=   0.378
 Maximum number of real-space cells 3x 3x 3
 Maximum number of reciprocal cells 3x 3x 3

    FEWALD:  cpu time      0.0007: real time      0.0007


--------------------------------------- Ionic step        1  -------------------------------------------




--------------------------------------- Iteration      1(   1)  ---------------------------------------


    POTLOK:  cpu time      0.0324: real time      0.0324
    SETDIJ:  cpu time      0.5901: real time      0.5901
     EDDAV:  cpu time      0.2956: real time      0.2958
 BZINTS: Fermi energy:   18.847533;   69.000000 electrons
         Band energy: 0.427553E+03;  BLOECHL correction:   -0.053785
       DOS:  cpu time      0.0007: real time      0.0007
    --------------------------------------------
      LOOP:  cpu time      0.9189: real time      0.9190

 eigenvalue-minimisations  :   768
 total energy-change (2. order) : 0.4279547E+03  (-0.3519015E+04)
 number of electron      69.0000000 magnetization       3.6000000
 augmentation part       69.0000000 magnetization       3.6000000

 Free energy of the ion-electron system (eV)
  ---------------------------------------------------
  alpha Z        PSCENC =       255.86940621
  Ewald energy   TEWEN  =     -6349.45386585
  -Hartree energ DENC   =     -1977.92079728
  -exchange      EXHF   =         0.00000000
  -V(xc)+E(xc)   XCENC  =       223.26094075
  PAW double counting   =      6869.48293738    -7140.24950435
  entropy T*S    EENTRO =         0.00000000
  eigenvalues    EBANDS =       427.55311328
  atomic energy  EATOM  =      8119.41244851
  Solvation  Ediel_sol  =         0.00000000
  ---------------------------------------------------
  free energy    TOTEN  =       427.95467864 eV

  energy without entropy =      427.95467864  energy(sigma->0) =      427.95467864


--------------------------------------------------------------------------------------------------------




--------------------------------------- Iteration      1(   2)  ---------------------------------------


     EDDAV:  cpu time      0.2857: real time      0.2857
 BZINTS: Fermi energy:   11.064593;   69.000000 electrons
         Band energy:-0.793623E+01;  BLOECHL correction:   -0.258946
       DOS:  cpu time      0.0006: real time      0.0006
    --------------------------------------------
      LOOP:  cpu time      0.2863: real time      0.2863

 eigenvalue-minimisations  :   768
 total energy-change (2. order) :-0.4354893E+03  (-0.4290905E+03)
 number of electron      69.0000000 magnetization       3.6000000
 augmentation part       69.0000000 magnetization       3.6000000

 Free energy of the ion-electron system (eV)
  ---------------------------------------------------
  alpha Z        PSCENC =       255.86940621
  Ewald energy   TEWEN  =     -6349.45386585
  -Hartree energ DENC   =     -1977.92079728
  -exchange      EXHF   =         0.00000000
  -V(xc)+E(xc)   XCENC  =       223.26094075
  PAW double counting   =      6869.48293738    -7140.24950435
  entropy T*S    EENTRO =         0.00000000
  eigenvalues    EBANDS =        -7.93623141
  atomic energy  EATOM  =      8119.41244851
  Solvation  Ediel_sol  =         0.00000000
  ---------------------------------------------------
  free energy    TOTEN  =        -7.53466605 eV

  energy without entropy =       -7.53466605  energy(sigma->0) =       -7.53466605


--------------------------------------------------------------------------------------------------------




--------------------------------------- Iteration      1(   3)  ---------------------------------------


     EDDAV:  cpu time      0.3880: real time      0.3880
 BZINTS: Fermi energy:   10.643194;   69.000000 electrons
         Band energy:-0.354004E+02;  BLOECHL correction:   -0.312890
       DOS:  cpu time      0.0006: real time      0.0006
    --------------------------------------------
      LOOP:  cpu time      0.3886: real time      0.3886

 eigenvalue-minimisations  :  1056
 total energy-change (2. order) :-0.2746413E+02  (-0.2739542E+02)
 number of electron      69.0000000 magnetization       3.6000000
 augmentation part       69.0000000 magnetization       3.6000000

 Free energy of the ion-electron system (eV)
  ---------------------------------------------------
  alpha Z        PSCENC =       255.86940621
  Ewald energy   TEWEN  =     -6349.45386585
  -Hartree energ DENC   =     -1977.92079728
  -exchange      EXHF   =         0.00000000
  -V(xc)+E(xc)   XCENC  =       223.26094075
  PAW double counting   =      6869.48293738    -7140.24950435
  entropy T*S    EENTRO =         0.00000000
  eigenvalues    EBANDS =       -35.40035819
  atomic energy  EATOM  =      8119.41244851
  Solvation  Ediel_sol  =         0.00000000
  ---------------------------------------------------
  free energy    TOTEN  =       -34.99879283 eV

  energy without entropy =      -34.99879283  energy(sigma->0) =      -34.99879283


--------------------------------------------------------------------------------------------------------




--------------------------------------- Iteration      1(   4)  ---------------------------------------


     EDDAV:  cpu time      0.3253: real time      0.3253
 BZINTS: Fermi energy:   10.641341;   69.000000 electrons
         Band energy:-0.359682E+02;  BLOECHL correction:   -0.311921
       DOS:  cpu time      0.0006: real time      0.0006
    --------------------------------------------
      LOOP:  cpu time      0.3259: real time      0.3259

 eigenvalue-minimisations  :   888
 total energy-change (2. order) :-0.5678088E+00  (-0.5680368E+00)
 number of electron      69.0000000 magnetization       3.6000000
 augmentation part       69.0000000 magnetization       3.6000000

 Free energy of the ion-electron system (eV)
  ---------------------------------------------------
  alpha Z        PSCENC =       255.86940621
  Ewald energy   TEWEN  =     -6349.45386585
  -Hartree energ DENC   =     -1977.92079728
  -exchange      EXHF   =         0.00000000
  -V(xc)+E(xc)   XCENC  =       223.26094075
  PAW double counting   =      6869.48293738    -7140.24950435
  entropy T*S    EENTRO =         0.00000000
  eigenvalues    EBANDS =       -35.96816698
  atomic energy  EATOM  =      8119.41244851
  Solvation  Ediel_sol  =         0.00000000
  ---------------------------------------------------
  free energy    TOTEN  =       -35.56660162 eV

  energy without entropy =      -35.56660162  energy(sigma->0) =      -35.56660162


--------------------------------------------------------------------------------------------------------




--------------------------------------- Iteration      1(   5)  ---------------------------------------


     EDDAV:  cpu time      0.4376: real time      0.4376
 BZINTS: Fermi energy:   10.641285;   69.000000 electrons
         Band energy:-0.359947E+02;  BLOECHL correction:   -0.311858
       DOS:  cpu time      0.0006: real time      0.0006
    CHARGE:  cpu time      0.0240: real time      0.0240
    MIXING:  cpu time      0.0009: real time      0.0009
    --------------------------------------------
      LOOP:  cpu time      0.4631: real time      0.4631

 eigenvalue-minimisations  :  1224
 total energy-change (2. order) :-0.2656550E-01  (-0.2658091E-01)
 number of electron      69.0000015 magnetization       0.9371333
 augmentation part       36.2636180 magnetization       0.6379739

 Broyden mixing:
  rms(total) = 0.15386E+01    rms(broyden)= 0.15385E+01
  rms(prec ) = 0.25674E+01
  weight for this iteration     100.00

 Free energy of the ion-electron system (eV)
  ---------------------------------------------------
  alpha Z        PSCENC =       255.86940621
  Ewald energy   TEWEN  =     -6349.45386585
  -Hartree energ DENC   =     -1977.92079728
  -exchange      EXHF   =         0.00000000
  -V(xc)+E(xc)   XCENC  =       223.26094075
  PAW double counting   =      6869.48293738    -7140.24950435
  entropy T*S    EENTRO =         0.00000000
  eigenvalues    EBANDS =       -35.99473248
  atomic energy  EATOM  =      8119.41244851
  Solvation  Ediel_sol  =         0.00000000
  ---------------------------------------------------
  free energy    TOTEN  =       -35.59316712 eV

  energy without entropy =      -35.59316712  energy(sigma->0) =      -35.59316712


--------------------------------------------------------------------------------------------------------




--------------------------------------- Iteration      1(   6)  ---------------------------------------


    POTLOK:  cpu time      0.0272: real time      0.0272
    SETDIJ:  cpu time      0.5552: real time      0.5552
    EDDIAG:  cpu time      0.0523: real time      0.0523
  RMM-DIIS:  cpu time      0.1961: real time      0.1961
    ORTHCH:  cpu time      0.0059: real time      0.0059
 BZINTS: Fermi energy:    8.316545;   69.000000 electrons
         Band energy:-0.102790E+03;  BLOECHL correction:   -0.382131
       DOS:  cpu time      0.0007: real time      0.0007
    CHARGE:  cpu time      0.0248: real time      0.0248
    MIXING:  cpu time      0.0010: real time      0.0010
    --------------------------------------------
      LOOP:  cpu time      0.8631: real time      0.8632

 eigenvalue-minimisations  :   841
 total energy-change (2. order) :-0.1512546E+01  (-0.2246700E+01)
 number of electron      69.0000018 magnetization       0.7099696
 augmentation part       40.3585488 magnetization       0.6430824

 Broyden mixing:
  rms(total) = 0.15419E+01    rms(broyden)= 0.15418E+01
  rms(prec ) = 0.36114E+01
  weight for this iteration     100.00

 eigenvalues of (default mixing * dielectric matrix)
  average eigenvalue GAMMA=   0.5446
  0.5446

 Free energy of the ion-electron system (eV)
  ---------------------------------------------------
  alpha Z        PSCENC =       255.86940621
  Ewald energy   TEWEN  =     -6349.45386585
  -Hartree energ DENC   =     -1921.60926819
  -exchange      EXHF   =         0.00000000
  -V(xc)+E(xc)   XCENC  =       220.21775433
  PAW double counting   =      7644.36679555    -7903.11877738
  entropy T*S    EENTRO =         0.00000000
  eigenvalues    EBANDS =      -102.79020651
  atomic energy  EATOM  =      8119.41244851
  Solvation  Ediel_sol  =         0.00000000
  ---------------------------------------------------
  free energy    TOTEN  =       -37.10571334 eV

  energy without entropy =      -37.10571334  energy(sigma->0) =      -37.10571334


--------------------------------------------------------------------------------------------------------




--------------------------------------- Iteration      1(   7)  ---------------------------------------


    POTLOK:  cpu time      0.0272: real time      0.0272
    SETDIJ:  cpu time      0.5550: real time      0.5550
    EDDIAG:  cpu time      0.0516: real time      0.0516
  RMM-DIIS:  cpu time      0.1930: real time      0.1931
    ORTHCH:  cpu time      0.0060: real time      0.0060
 BZINTS: Fermi energy:   10.059638;   69.000000 electrons
         Band energy:-0.660786E+02;  BLOECHL correction:   -0.342556
       DOS:  cpu time      0.0007: real time      0.0007
    CHARGE:  cpu time      0.0243: real time      0.0243
    MIXING:  cpu time      0.0010: real time      0.0010
    --------------------------------------------
      LOOP:  cpu time      0.8588: real time      0.8589

 eigenvalue-minimisations  :   859
 total energy-change (2. order) : 0.3523098E+01  (-0.6847483E+00)
 number of electron      69.0000015 magnetization       0.5269620
 augmentation part       37.3273940 magnetization       0.3562157

 Broyden mixing:
  rms(total) = 0.49778E+00    rms(broyden)= 0.49771E+00
  rms(prec ) = 0.86193E+00
  weight for this iteration     100.00

 eigenvalues of (default mixing * dielectric matrix)
  average eigenvalue GAMMA=   0.6869
  1.0410  0.3328

 Free energy of the ion-electron system (eV)
  ---------------------------------------------------
  alpha Z        PSCENC =       255.86940621
  Ewald energy   TEWEN  =     -6349.45386585
  -Hartree energ DENC   =     -1946.27607986
  -exchange      EXHF   =         0.00000000
  -V(xc)+E(xc)   XCENC  =       221.29871616
  PAW double counting   =      7823.99402001    -8092.34861237
  entropy T*S    EENTRO =         0.00000000
  eigenvalues    EBANDS =       -66.07864844
  atomic energy  EATOM  =      8119.41244851
  Solvation  Ediel_sol  =         0.00000000
  ---------------------------------------------------
  free energy    TOTEN  =       -33.58261564 eV

  energy without entropy =      -33.58261564  energy(sigma->0) =      -33.58261564


--------------------------------------------------------------------------------------------------------




--------------------------------------- Iteration      1(   8)  ---------------------------------------


    POTLOK:  cpu time      0.0271: real time      0.0271
    SETDIJ:  cpu time      0.5400: real time      0.5400
    EDDIAG:  cpu time      0.0526: real time      0.0527
  RMM-DIIS:  cpu time      0.2078: real time      0.2078
    ORTHCH:  cpu time      0.0059: real time      0.0059
 BZINTS: Fermi energy:    9.851817;   69.000000 electrons
         Band energy:-0.766925E+02;  BLOECHL correction:   -0.349021
       DOS:  cpu time      0.0007: real time      0.0007
    CHARGE:  cpu time      0.0257: real time      0.0257
    MIXING:  cpu time      0.0010: real time      0.0010
    --------------------------------------------
      LOOP:  cpu time      0.8607: real time      0.8608

 eigenvalue-minimisations  :   902
 total energy-change (2. order) : 0.2659303E+00  (-0.5387506E-01)
 number of electron      69.0000016 magnetization       0.5141454
 augmentation part       37.8326051 magnetization       0.4406319

 Broyden mixing:
  rms(total) = 0.15785E+00    rms(broyden)= 0.15785E+00
  rms(prec ) = 0.20524E+00
  weight for this iteration     100.00

 eigenvalues of (default mixing * dielectric matrix)
  average eigenvalue GAMMA=   0.9158
  1.6687  0.3428  0.7360

 Free energy of the ion-electron system (eV)
  ---------------------------------------------------
  alpha Z        PSCENC =       255.86940621
  Ewald energy   TEWEN  =     -6349.45386585
  -Hartree energ DENC   =     -1932.60637994
  -exchange      EXHF   =         0.00000000
  -V(xc)+E(xc)   XCENC  =       220.52742285
  PAW double counting   =      8453.54576229    -8723.91897753
  entropy T*S    EENTRO =         0.00000000
  eigenvalues    EBANDS =       -76.69250192
  atomic energy  EATOM  =      8119.41244851
  Solvation  Ediel_sol  =         0.00000000
  ---------------------------------------------------
  free energy    TOTEN  =       -33.31668538 eV

  energy without entropy =      -33.31668538  energy(sigma->0) =      -33.31668538


--------------------------------------------------------------------------------------------------------




--------------------------------------- Iteration      1(   9)  ---------------------------------------


    POTLOK:  cpu time      0.0270: real time      0.0270
    SETDIJ:  cpu time      0.5392: real time      0.5392
    EDDIAG:  cpu time      0.0514: real time      0.0514
  RMM-DIIS:  cpu time      0.2194: real time      0.2195
    ORTHCH:  cpu time      0.0060: real time      0.0060
 BZINTS: Fermi energy:    9.896048;   69.000000 electrons
         Band energy:-0.765618E+02;  BLOECHL correction:   -0.345147
       DOS:  cpu time      0.0007: real time      0.0007
    CHARGE:  cpu time      0.0250: real time      0.0250
    MIXING:  cpu time      0.0010: real time      0.0010
    --------------------------------------------
      LOOP:  cpu time      0.8697: real time      0.8698

 eigenvalue-minimisations  :   951
 total energy-change (2. order) : 0.3856025E-03  (-0.1192687E-01)
 number of electron      69.0000016 magnetization       0.5994423
 augmentation part       37.7514930 magnetization       0.4815492

 Broyden mixing:
  rms(total) = 0.51458E-01    rms(broyden)= 0.51457E-01
  rms(prec ) = 0.95809E-01
  weight for this iteration     100.00

 eigenvalues of (default mixing * dielectric matrix)
  average eigenvalue GAMMA=   1.0452
  2.0154  1.1158  0.3389  0.7108

 Free energy of the ion-electron system (eV)
  ---------------------------------------------------
  alpha Z        PSCENC =       255.86940621
  Ewald energy   TEWEN  =     -6349.45386585
  -Hartree energ DENC   =     -1930.79637518
  -exchange      EXHF   =         0.00000000
  -V(xc)+E(xc)   XCENC  =       220.41262594
  PAW double counting   =      8666.96367541    -8939.16237580
  entropy T*S    EENTRO =         0.00000000
  eigenvalues    EBANDS =       -76.56183902
  atomic energy  EATOM  =      8119.41244851
  Solvation  Ediel_sol  =         0.00000000
  ---------------------------------------------------
  free energy    TOTEN  =       -33.31629978 eV

  energy without entropy =      -33.31629978  energy(sigma->0) =      -33.31629978


--------------------------------------------------------------------------------------------------------




--------------------------------------- Iteration      1(  10)  ---------------------------------------


    POTLOK:  cpu time      0.0271: real time      0.0271
    SETDIJ:  cpu time      0.5838: real time      0.5838
    EDDIAG:  cpu time      0.0522: real time      0.0522
  RMM-DIIS:  cpu time      0.2651: real time      0.2651
    ORTHCH:  cpu time      0.0059: real time      0.0059
 BZINTS: Fermi energy:    9.880402;   69.000000 electrons
         Band energy:-0.763001E+02;  BLOECHL correction:   -0.343536
       DOS:  cpu time      0.0006: real time      0.0006
    CHARGE:  cpu time      0.0248: real time      0.0248
    MIXING:  cpu time      0.0010: real time      0.0010
    --------------------------------------------
      LOOP:  cpu time      0.9605: real time      0.9605

 eigenvalue-minimisations  :  1087
 total energy-change (2. order) : 0.3933942E-02  (-0.2111657E-02)
 number of electron      69.0000016 magnetization       0.6341321
 augmentation part       37.7858101 magnetization       0.5120546

 Broyden mixing:
  rms(total) = 0.18864E-01    rms(broyden)= 0.18862E-01
  rms(prec ) = 0.32438E-01
  weight for this iteration     100.00

 eigenvalues of (default mixing * dielectric matrix)
  average eigenvalue GAMMA=   1.0482
  2.0618  1.3596  0.3388  0.7609  0.7200

 Free energy of the ion-electron system (eV)
  ---------------------------------------------------
  alpha Z        PSCENC =       255.86940621
  Ewald energy   TEWEN  =     -6349.45386585
  -Hartree energ DENC   =     -1929.90878125
  -exchange      EXHF   =         0.00000000
  -V(xc)+E(xc)   XCENC  =       220.37975560
  PAW double counting   =      8738.31302781    -9011.62429952
  entropy T*S    EENTRO =         0.00000000
  eigenvalues    EBANDS =       -76.30005734
  atomic energy  EATOM  =      8119.41244851
  Solvation  Ediel_sol  =         0.00000000
  ---------------------------------------------------
  free energy    TOTEN  =       -33.31236584 eV

  energy without entropy =      -33.31236584  energy(sigma->0) =      -33.31236584


--------------------------------------------------------------------------------------------------------




--------------------------------------- Iteration      1(  11)  ---------------------------------------


    POTLOK:  cpu time      0.0271: real time      0.0271
    SETDIJ:  cpu time      0.5949: real time      0.5949
    EDDIAG:  cpu time      0.0528: real time      0.0528
  RMM-DIIS:  cpu time      0.2626: real time      0.2626
    ORTHCH:  cpu time      0.0059: real time      0.0059
 BZINTS: Fermi energy:    9.881845;   69.000000 electrons
         Band energy:-0.760318E+02;  BLOECHL correction:   -0.342306
       DOS:  cpu time      0.0007: real time      0.0007
    CHARGE:  cpu time      0.0258: real time      0.0258
    MIXING:  cpu time      0.0011: real time      0.0011
    --------------------------------------------
      LOOP:  cpu time      0.9708: real time      0.9708

 eigenvalue-minimisations  :  1050
 total energy-change (2. order) : 0.1058258E-02  (-0.4396595E-03)
 number of electron      69.0000016 magnetization       0.6503753
 augmentation part       37.7852323 magnetization       0.5268688

 Broyden mixing:
  rms(total) = 0.12827E-01    rms(broyden)= 0.12824E-01
  rms(prec ) = 0.18251E-01
  weight for this iteration     100.00

 eigenvalues of (default mixing * dielectric matrix)
  average eigenvalue GAMMA=   1.0879
  1.9367  1.9367  0.3388  0.8902  0.7697  0.6554

 Free energy of the ion-electron system (eV)
  ---------------------------------------------------
  alpha Z        PSCENC =       255.86940621
  Ewald energy   TEWEN  =     -6349.45386585
  -Hartree energ DENC   =     -1929.54230975
  -exchange      EXHF   =         0.00000000
  -V(xc)+E(xc)   XCENC  =       220.36999376
  PAW double counting   =      8748.93062428    -9022.86585045
  entropy T*S    EENTRO =         0.00000000
  eigenvalues    EBANDS =       -76.03175428
  atomic energy  EATOM  =      8119.41244851
  Solvation  Ediel_sol  =         0.00000000
  ---------------------------------------------------
  free energy    TOTEN  =       -33.31130758 eV

  energy without entropy =      -33.31130758  energy(sigma->0) =      -33.31130758


--------------------------------------------------------------------------------------------------------




--------------------------------------- Iteration      1(  12)  ---------------------------------------


    POTLOK:  cpu time      0.0289: real time      0.0289
    SETDIJ:  cpu time      0.5399: real time      0.5400
    EDDIAG:  cpu time      0.0516: real time      0.0516
  RMM-DIIS:  cpu time      0.2120: real time      0.2120
    ORTHCH:  cpu time      0.0059: real time      0.0059
 BZINTS: Fermi energy:    9.880274;   69.000000 electrons
         Band energy:-0.760425E+02;  BLOECHL correction:   -0.342143
       DOS:  cpu time      0.0006: real time      0.0006
    CHARGE:  cpu time      0.0242: real time      0.0242
    MIXING:  cpu time      0.0011: real time      0.0011
    --------------------------------------------
      LOOP:  cpu time      0.8643: real time      0.8644

 eigenvalue-minimisations  :   752
 total energy-change (2. order) : 0.4476599E-03  (-0.9899504E-04)
 number of electron      69.0000016 magnetization       0.6543185
 augmentation part       37.7900904 magnetization       0.5311754

 Broyden mixing:
  rms(total) = 0.58136E-02    rms(broyden)= 0.58119E-02
  rms(prec ) = 0.77565E-02
  weight for this iteration     100.00

 eigenvalues of (default mixing * dielectric matrix)
  average eigenvalue GAMMA=   1.1621
  2.2232  2.2232  0.3388  1.0969  0.8425  0.7695  0.6406

 Free energy of the ion-electron system (eV)
  ---------------------------------------------------
  alpha Z        PSCENC =       255.86940621
  Ewald energy   TEWEN  =     -6349.45386585
  -Hartree energ DENC   =     -1929.29258030
  -exchange      EXHF   =         0.00000000
  -V(xc)+E(xc)   XCENC  =       220.36217544
  PAW double counting   =      8749.08141382    -9023.24733184
  entropy T*S    EENTRO =         0.00000000
  eigenvalues    EBANDS =       -76.04252590
  atomic energy  EATOM  =      8119.41244851
  Solvation  Ediel_sol  =         0.00000000
  ---------------------------------------------------
  free energy    TOTEN  =       -33.31085992 eV

  energy without entropy =      -33.31085992  energy(sigma->0) =      -33.31085992


--------------------------------------------------------------------------------------------------------




--------------------------------------- Iteration      1(  13)  ---------------------------------------


    POTLOK:  cpu time      0.0271: real time      0.0271
    SETDIJ:  cpu time      0.5694: real time      0.5694
    EDDIAG:  cpu time      0.0516: real time      0.0516
  RMM-DIIS:  cpu time      0.1525: real time      0.1526
    ORTHCH:  cpu time      0.0058: real time      0.0058
 BZINTS: Fermi energy:    9.880518;   69.000000 electrons
         Band energy:-0.761334E+02;  BLOECHL correction:   -0.342081
       DOS:  cpu time      0.0006: real time      0.0006
    --------------------------------------------
      LOOP:  cpu time      0.8070: real time      0.8071

 eigenvalue-minimisations  :   501
 total energy-change (2. order) : 0.2430977E-03  (-0.2881852E-04)
 number of electron      69.0000016 magnetization       0.6543185
 augmentation part       37.7900904 magnetization       0.5311754

 Free energy of the ion-electron system (eV)
  ---------------------------------------------------
  alpha Z        PSCENC =       255.86940621
  Ewald energy   TEWEN  =     -6349.45386585
  -Hartree energ DENC   =     -1929.16517728
  -exchange      EXHF   =         0.00000000
  -V(xc)+E(xc)   XCENC  =       220.35661628
  PAW double counting   =      8743.72483121    -9017.92148168
  entropy T*S    EENTRO =         0.00000000
  eigenvalues    EBANDS =       -76.13339422
  atomic energy  EATOM  =      8119.41244851
  Solvation  Ediel_sol  =         0.00000000
  ---------------------------------------------------
  free energy    TOTEN  =       -33.31061682 eV

  energy without entropy =      -33.31061682  energy(sigma->0) =      -33.31061682


--------------------------------------------------------------------------------------------------------




 average (electrostatic) potential at core
  the test charge radii are     1.0452  1.0894
  (the norm of the test charge is              1.0000)
       1 -78.2301       2 -78.2301       3 -78.2301       4 -97.1162       5 -97.1162
       6 -97.2089
 
 
 
 E-fermi :   9.8805     XC(G=0): -11.7081     alpha+bet :-16.1624

 val. band max:        9.8584428128   @ k =   0.0000   0.0000   0.3333
 cond. band min:       9.8584429848   @ k =   0.0000   0.0000   0.3333
 fundamental gap:      0.0000001720
 Fermi energy:         9.8805177841

 spin component 1

 k-point     1 :       0.0000    0.0000    0.0000
  band No.  band energies     occupation 
      1     -11.7610      1.00000
      2     -11.6460      1.00000
      3     -11.6460      1.00000
      4     -11.6439      1.00000
      5     -11.6439      1.00000
      6     -11.5536      1.00000
      7     -11.5428      1.00000
      8     -11.5428      1.00000
      9     -11.5270      1.00000
     10     -11.5270      1.00000
     11     -11.4589      1.00000
     12     -11.4589      1.00000
     13     -11.4551      1.00000
     14     -11.4551      1.00000
     15     -11.4023      1.00000
     16      -1.5319      1.00000
     17       3.0408      1.00000
     18       4.5424      1.00000
     19       5.7107      1.00000
     20       5.7107      1.00000
     21       6.4028      1.00000
     22       6.7292      1.00000
     23       7.2146      1.00000
     24       7.2146      1.00000
     25       7.2359      1.00000
     26       7.7094      1.00000
     27       7.7094      1.00000
     28       8.1290      1.00000
     29       8.1290      1.00000
     30       9.2128      1.00000
     31       9.2260      1.00000
     32       9.2260      1.00000
     33       9.2867      1.00000
     34       9.2867      1.04746
     35      10.1237      0.21626
     36      10.2827     -0.01860
     37      10.9760      0.00000
     38      10.9760      0.00000
     39      12.5907      0.00000
     40      13.3410      0.00000
     41      14.8500      0.00000
     42      14.8500      0.00000
     43      15.5756      0.00000
     44      16.2530      0.00000
     45      16.2530      0.00000
     46      16.4318      0.00000
     47      18.3032      0.00000
     48      18.3032      0.00000

 k-point     2 :       0.5000    0.0000    0.0000
  band No.  band energies     occupation 
      1     -11.7539      1.00000
      2     -11.7033      1.00000
      3     -11.6894      1.00000
      4     -11.6565      1.00000
      5     -11.6395      1.00000
      6     -11.5768      1.00000
      7     -11.5322      1.00000
      8     -11.5257      1.00000
      9     -11.4798      1.00000
     10     -11.4792      1.00000
     11     -11.4639      1.00000
     12     -11.4547      1.00000
     13     -11.4308      1.00000
     14     -11.4284      1.00000
     15     -11.4203      1.00000
     16       0.0553      1.00000
     17       0.5742      1.00000
     18       3.0208      1.00000
     19       4.6822      1.00000
     20       6.5797      1.00000
     21       6.6948      1.00000
     22       7.1208      1.00000
     23       7.3863      1.00000
     24       7.6130      1.00000
     25       7.6371      1.00000
     26       7.7251      1.00000
     27       7.9070      1.00000
     28       8.2181      1.00000
     29       8.5439      1.00000
     30       8.7502      1.00000
     31       9.0355      1.00000
     32       9.2218      1.00000
     33       9.2690      1.00000
     34      10.3287      0.23768
     35      10.6975     -0.08978
     36      11.3410     -0.17939
     37      11.4877      0.00000
     38      12.1242      0.00000
     39      12.9944      0.00000
     40      13.5402      0.00000
     41      13.5951      0.00000
     42      13.7480      0.00000
     43      13.8353      0.00000
     44      15.6572      0.00000
     45      15.8349      0.00000
     46      16.6705      0.00000
     47      16.8873      0.00000
     48      18.0960      0.00000

 k-point     3 :       0.0000    0.0000    0.3333
  band No.  band energies     occupation 
      1     -11.7487      1.00000
      2     -11.6551      1.00000
      3     -11.6551      1.00000
      4     -11.6407      1.00000
      5     -11.6407      1.00000
      6     -11.5731      1.00000
      7     -11.5731      1.00000
      8     -11.5346      1.00000
      9     -11.5160      1.00000
     10     -11.5160      1.00000
     11     -11.4557      1.00000
     12     -11.4557      1.00000
     13     -11.4431      1.00000
     14     -11.4431      1.00000
     15     -11.3964      1.00000
     16      -0.6075      1.00000
     17       1.9224      1.00000
     18       4.1892      1.00000
     19       5.1836      1.00000
     20       6.6956      1.00000
     21       6.6956      1.00000
     22       7.2979      1.00000
     23       7.2979      1.00000
     24       7.4834      1.00000
     25       7.6838      1.00000
     26       7.7050      1.00000
     27       7.7050      1.00000
     28       8.3502      1.00000
     29       8.3502      1.00000
     30       9.1755      1.00000
     31       9.2235      1.00000
     32       9.2235      1.00000
     33       9.2261      1.00000
     34       9.2261      1.02838
     35       9.6105      0.84719
     36       9.6105      0.76209
     37       9.9742      0.00000
     38      10.1241      0.00000
     39      11.5092      0.00000
     40      11.7384      0.00000
     41      13.1930      0.00000
     42      13.1930      0.00000
     43      14.0866      0.00000
     44      14.0866      0.00000
     45      16.7308      0.00000
     46      21.0094      0.00000
     47      21.0099      0.00000
     48      21.6884      0.00000

 k-point     4 :       0.5000    0.0000    0.3333
  band No.  band energies     occupation 
      1     -11.7435      1.00000
      2     -11.7103      1.00000
      3     -11.6877      1.00000
      4     -11.6421      1.00000
      5     -11.6375      1.00000
      6     -11.5705      1.00000
      7     -11.5599      1.00000
      8     -11.5339      1.00000
      9     -11.4842      1.00000
     10     -11.4820      1.00000
     11     -11.4588      1.00000
     12     -11.4558      1.00000
     13     -11.4182      1.00000
     14     -11.4176      1.00000
     15     -11.4167      1.00000
     16       0.8434      1.00000
     17       1.3713      1.00000
     18       2.8323      1.00000
     19       4.4827      1.00000
     20       5.6111      1.00000
     21       6.0625      1.00000
     22       6.3583      1.00000
     23       7.0613      1.00000
     24       7.3415      1.00000
     25       7.8276      1.00000
     26       8.0277      1.00000
     27       8.2469      1.00000
     28       8.2693      1.00000
     29       8.5129      1.00000
     30       8.5689      1.00000
     31       8.8777      1.00000
     32       9.2080      1.00000
     33       9.2348      1.00000
     34       9.3244      1.00301
     35       9.4255      0.91158
     36       9.7836      0.67046
     37      10.7321      0.00000
     38      11.0576      0.00000
     39      13.0702      0.00000
     40      14.1666      0.00000
     41      14.6637      0.00000
     42      15.9344      0.00000
     43      16.0598      0.00000
     44      16.7926      0.00000
     45      17.9380      0.00000
     46      17.9899      0.00000
     47      18.1006      0.00000
     48      18.5270      0.00000
 Fermi energy:         9.8805177841

 spin component 2

 k-point     1 :       0.0000    0.0000    0.0000
  band No.  band energies     occupation 
      1     -11.7665      1.00000
      2     -11.6514      1.00000
      3     -11.6514      1.00000
      4     -11.6383      1.00000
      5     -11.6383      1.00000
      6     -11.5527      1.00000
      7     -11.5408      1.00000
      8     -11.5408      1.00000
      9     -11.5224      1.00000
     10     -11.5224      1.00000
     11     -11.4643      1.00000
     12     -11.4643      1.00000
     13     -11.4538      1.00000
     14     -11.4538      1.00000
     15     -11.4023      1.00000
     16      -1.5171      1.00000
     17       3.0517      1.00000
     18       4.5408      1.00000
     19       5.8053      1.00000
     20       5.8053      1.00000
     21       6.4831      1.00000
     22       6.9169      1.00000
     23       7.2068      1.00000
     24       7.2068      1.00000
     25       7.2480      1.00000
     26       7.9092      1.00000
     27       7.9092      1.00000
     28       8.3160      1.00000
     29       8.3160      1.00000
     30       9.3835      1.00000
     31       9.3835      1.00000
     32       9.4446      1.00000
     33       9.4446      1.00000
     34       9.4523      0.87635
     35      10.3521     -0.04021
     36      10.4143     -0.00240
     37      11.2371      0.00000
     38      11.2371      0.00000
     39      12.7034      0.00000
     40      13.3197      0.00000
     41      14.8570      0.00000
     42      14.8570      0.00000
     43      15.5714      0.00000
     44      16.3131      0.00000
     45      16.3131      0.00000
     46      16.4877      0.00000
     47      18.3713      0.00000
     48      18.3713      0.00000

 k-point     2 :       0.5000    0.0000    0.0000
  band No.  band energies     occupation 
      1     -11.7594      1.00000
      2     -11.6975      1.00000
      3     -11.6841      1.00000
      4     -11.6610      1.00000
      5     -11.6450      1.00000
      6     -11.5736      1.00000
      7     -11.5313      1.00000
      8     -11.5238      1.00000
      9     -11.4795      1.00000
     10     -11.4777      1.00000
     11     -11.4681      1.00000
     12     -11.4532      1.00000
     13     -11.4298      1.00000
     14     -11.4285      1.00000
     15     -11.4210      1.00000
     16       0.0794      1.00000
     17       0.5788      1.00000
     18       3.0246      1.00000
     19       4.7282      1.00000
     20       6.6689      1.00000
     21       6.7688      1.00000
     22       7.1871      1.00000
     23       7.5838      1.00000
     24       7.7884      1.00000
     25       7.7987      1.00000
     26       7.8757      1.00000
     27       8.0638      1.00000
     28       8.3812      1.00000
     29       8.7553      1.00000
     30       8.9406      1.00000
     31       9.1741      1.00000
     32       9.4188      1.00000
     33       9.4459      1.00000
     34      10.5777     -0.03490
     35      10.7852     -0.14212
     36      11.4531     -0.00227
     37      11.5738      0.00000
     38      12.2353      0.00000
     39      13.0918      0.00000
     40      13.5750      0.00000
     41      13.6453      0.00000
     42      13.7912      0.00000
     43      13.9240      0.00000
     44      15.6731      0.00000
     45      15.8990      0.00000
     46      16.7177      0.00000
     47      16.9189      0.00000
     48      18.1422      0.00000

 k-point     3 :       0.0000    0.0000    0.3333
  band No.  band energies     occupation 
      1     -11.7542      1.00000
      2     -11.6598      1.00000
      3     -11.6598      1.00000
      4     -11.6351      1.00000
      5     -11.6351      1.00000
      6     -11.5719      1.00000
      7     -11.5719      1.00000
      8     -11.5334      1.00000
      9     -11.5121      1.00000
     10     -11.5121      1.00000
     11     -11.4544      1.00000
     12     -11.4544      1.00000
     13     -11.4477      1.00000
     14     -11.4477      1.00000
     15     -11.3963      1.00000
     16      -0.5920      1.00000
     17       1.9257      1.00000
     18       4.2160      1.00000
     19       5.2241      1.00000
     20       6.7875      1.00000
     21       6.7875      1.00000
     22       7.3937      1.00000
     23       7.3937      1.00000
     24       7.5033      1.00000
     25       7.8853      1.00000
     26       7.8853      1.00000
     27       7.9424      1.00000
     28       8.3925      1.00000
     29       8.3925      1.00000
     30       9.3755      1.00000
     31       9.3755      1.00000
     32       9.3847      1.00000
     33       9.3847      1.00000
     34       9.4134      0.96516
     35       9.8584      0.67066
     36       9.8584      0.07095
     37       9.9970      0.00000
     38      10.3526      0.00000
     39      11.5725      0.00000
     40      11.8135      0.00000
     41      13.2628      0.00000
     42      13.2628      0.00000
     43      14.1955      0.00000
     44      14.1955      0.00000
     45      16.7812      0.00000
     46      21.0120      0.00000
     47      21.0124      0.00000
     48      21.6972      0.00000

 k-point     4 :       0.5000    0.0000    0.3333
  band No.  band energies     occupation 
      1     -11.7490      1.00000
      2     -11.7062      1.00000
      3     -11.6824      1.00000
      4     -11.6477      1.00000
      5     -11.6409      1.00000
      6     -11.5671      1.00000
      7     -11.5583      1.00000
      8     -11.5320      1.00000
      9     -11.4834      1.00000
     10     -11.4826      1.00000
     11     -11.4610      1.00000
     12     -11.4551      1.00000
     13     -11.4196      1.00000
     14     -11.4164      1.00000
     15     -11.4161      1.00000
     16       0.8687      1.00000
     17       1.3744      1.00000
     18       2.8389      1.00000
     19       4.4986      1.00000
     20       5.6578      1.00000
     21       6.0946      1.00000
     22       6.4184      1.00000
     23       7.1547      1.00000
     24       7.4333      1.00000
     25       8.0523      1.00000
     26       8.1995      1.00000
     27       8.4320      1.00000
     28       8.5051      1.00000
     29       8.6885      1.00000
     30       8.8065      1.00000
     31       9.0453      1.00000
     32       9.3952      1.00000
     33       9.4316      1.00000
     34       9.4696      0.93477
     35       9.6099      0.80289
     36      10.0144     -0.01194
     37      10.8158      0.00000
     38      11.2011      0.00000
     39      13.1091      0.00000
     40      14.2121      0.00000
     41      14.7125      0.00000
     42      15.9768      0.00000
     43      16.1271      0.00000
     44      16.8093      0.00000
     45      17.9715      0.00000
     46      18.0190      0.00000
     47      18.1567      0.00000
     48      18.5826      0.00000


--------------------------------------------------------------------------------------------------------


 soft charge-density along one line, spin component           1
         0         1         2         3         4         5         6         7         8         9
 total charge-density along one line
 
 soft charge-density along one line, spin component           2
         0         1         2         3         4         5         6         7         8         9
 total charge-density along one line
 
 pseudopotential strength for first ion, spin component:           1
  0.061  -0.000  -0.032   0.000  -0.016  -0.604  -0.000  -0.030
 -0.000   0.077   0.000   0.008  -0.000  -0.000  -0.589   0.000
 -0.032   0.000   0.003  -0.000   0.018  -0.030   0.000  -0.660
  0.000   0.008  -0.000   0.068  -0.000   0.000   0.008  -0.000
 -0.016  -0.000   0.018  -0.000   0.043  -0.016  -0.000   0.017
 -0.604  -0.000  -0.030   0.000  -0.016  -1.208  -0.000  -0.029
 -0.000  -0.589   0.000   0.008  -0.000  -0.000  -1.194   0.000
 -0.030   0.000  -0.660  -0.000   0.017  -0.029   0.000  -1.263
  0.000   0.008  -0.000  -0.598  -0.000   0.000   0.008  -0.000
 -0.016  -0.000   0.017  -0.000  -0.622  -0.015  -0.000   0.017
 -0.008  -0.000  -0.001   0.000   0.004  -0.007  -0.000  -0.001
 -0.014  -0.000  -0.003   0.000   0.008  -0.013  -0.000  -0.002
  0.000  -0.000   0.000   0.000   0.000   0.000  -0.000   0.000
  0.000  -0.000  -0.000   0.000  -0.000   0.000  -0.000  -0.000
 -0.000   0.000  -0.000  -0.000   0.000  -0.000   0.000  -0.000
  0.000  -0.000   0.000   0.000   0.000   0.000  -0.000   0.000
  0.000  -0.000  -0.000   0.000  -0.000   0.000  -0.000  -0.000
 -0.000   0.000  -0.000  -0.000   0.000  -0.000   0.000  -0.000
 pseudopotential strength for first ion, spin component:           2
  0.205  -0.000   0.014   0.000  -0.004  -0.466  -0.000   0.013
 -0.000   0.238   0.000   0.040  -0.000  -0.000  -0.435   0.000
  0.014   0.000   0.229  -0.000  -0.008   0.013   0.000  -0.444
  0.000   0.040  -0.000   0.191  -0.000   0.000   0.039  -0.000
 -0.004  -0.000  -0.008  -0.000   0.201  -0.004  -0.000  -0.008
 -0.466  -0.000   0.013   0.000  -0.004  -1.076  -0.000   0.013
 -0.000  -0.435   0.000   0.039  -0.000  -0.000  -1.046   0.000
  0.013   0.000  -0.444  -0.000  -0.008   0.013   0.000  -1.056
  0.000   0.039  -0.000  -0.480  -0.000   0.000   0.038  -0.000
 -0.004  -0.000  -0.008  -0.000  -0.470  -0.004  -0.000  -0.007
 -0.003  -0.000  -0.007   0.000   0.002  -0.003  -0.000  -0.006
 -0.006  -0.000  -0.013   0.000   0.003  -0.006  -0.000  -0.012
  0.000  -0.000   0.000   0.000   0.000   0.000  -0.000   0.000
  0.000  -0.000  -0.000   0.000  -0.000   0.000  -0.000  -0.000
 -0.000   0.000  -0.000  -0.000   0.000  -0.000   0.000  -0.000
  0.000  -0.000   0.000   0.000   0.000   0.000  -0.000   0.000
  0.000  -0.000  -0.000   0.000  -0.000   0.000  -0.000  -0.000
 -0.000   0.000  -0.000  -0.000   0.000  -0.000   0.000  -0.000
 total augmentation occupancy for first ion, spin component:           1
  2.192  -0.000  -0.192  -0.000  -0.700  -1.016  -0.000   0.255   0.000   0.473   0.191  -0.003   0.000   0.000   0.000   0.000
 -0.000   2.080   0.000  -0.214  -0.000   0.000  -0.704   0.000   0.362   0.000   0.000   0.000   0.000   0.000   0.000   0.000
 -0.192   0.000   1.366   0.000   0.111   0.258  -0.000  -0.591  -0.000  -0.149  -0.017   0.043   0.000   0.000   0.000   0.000
 -0.000  -0.214   0.000   2.327  -0.000  -0.000   0.362   0.000  -1.122  -0.000   0.000  -0.000   0.000   0.000   0.000   0.000
 -0.700  -0.000   0.111   0.000   1.383   0.473   0.000  -0.147  -0.000  -0.470  -0.110   0.002   0.000   0.000   0.000   0.000
 -1.016   0.000   0.258  -0.000   0.473   1.451   0.000  -0.318   0.000  -0.343  -0.169   0.012   0.000   0.000   0.000   0.000
 -0.000  -0.704  -0.000   0.362   0.000   0.000   1.032   0.000  -0.478  -0.000  -0.000  -0.000   0.000   0.000   0.000   0.000
  0.255   0.000  -0.591   0.000  -0.147  -0.318   0.000   1.308  -0.000   0.184   0.009  -0.023   0.000   0.000   0.000   0.000
  0.000   0.362  -0.000  -1.122  -0.000   0.000  -0.478   0.000   1.584  -0.000   0.000  -0.000   0.000   0.000   0.000   0.000
  0.473   0.000  -0.149  -0.000  -0.470  -0.343   0.000   0.184  -0.000   1.055   0.098  -0.007   0.000   0.000   0.000   0.000
  0.191   0.000  -0.017   0.000  -0.110  -0.169  -0.000   0.009   0.000   0.098   2.177  -0.346   0.000   0.000   0.000   0.000
 -0.003   0.000   0.043  -0.000   0.002   0.012  -0.000  -0.023  -0.000  -0.007  -0.346   0.065   0.000   0.000   0.000   0.000
  0.000   0.000   0.000   0.000   0.000   0.000   0.000   0.000   0.000   0.000   0.000   0.000   0.288   0.000  -0.015  -0.032
  0.000   0.000   0.000   0.000   0.000   0.000   0.000   0.000   0.000   0.000   0.000   0.000   0.000   0.254   0.000  -0.000
  0.000   0.000   0.000   0.000   0.000   0.000   0.000   0.000   0.000   0.000   0.000   0.000  -0.015   0.000   0.306   0.002
  0.000   0.000   0.000   0.000   0.000   0.000   0.000   0.000   0.000   0.000   0.000   0.000  -0.032  -0.000   0.002   0.004
  0.000   0.000   0.000   0.000   0.000   0.000   0.000   0.000   0.000   0.000   0.000   0.000   0.000  -0.032  -0.000   0.000
  0.000   0.000   0.000   0.000   0.000   0.000   0.000   0.000   0.000   0.000   0.000   0.000   0.002   0.000  -0.034  -0.000
 total augmentation occupancy for first ion, spin component:           2
  0.132  -0.000   0.128   0.000   0.038  -0.045   0.000  -0.063   0.000  -0.020   0.007   0.003   0.000   0.000   0.000   0.000
 -0.000   0.172   0.000   0.075  -0.000   0.000  -0.061  -0.000  -0.035  -0.000   0.000   0.000   0.000   0.000   0.000   0.000
  0.128   0.000   0.271  -0.000  -0.074  -0.058   0.000  -0.081   0.000   0.034   0.011   0.007   0.000   0.000   0.000   0.000
  0.000   0.075  -0.000   0.084   0.000   0.000  -0.035  -0.000  -0.021   0.000   0.000   0.000   0.000   0.000   0.000   0.000
  0.038  -0.000  -0.074   0.000   0.176  -0.020  -0.000   0.037  -0.000  -0.068  -0.004  -0.002   0.000   0.000   0.000   0.000
 -0.045   0.000  -0.058  -0.000  -0.020  -0.012  -0.000   0.023   0.000   0.008  -0.002  -0.001   0.000   0.000   0.000   0.000
  0.000  -0.061   0.000  -0.035  -0.000  -0.000  -0.002   0.000   0.014  -0.000  -0.000  -0.000   0.000   0.000   0.000   0.000
 -0.063  -0.000  -0.081   0.000   0.037   0.023   0.000  -0.018   0.000  -0.013   0.002  -0.003   0.000   0.000   0.000   0.000
  0.000  -0.035   0.000  -0.021  -0.000   0.000   0.014   0.000  -0.018   0.000  -0.000  -0.000   0.000   0.000   0.000   0.000
 -0.020   0.000   0.034   0.000  -0.068   0.008  -0.000  -0.013   0.000  -0.003   0.001   0.001   0.000   0.000   0.000   0.000
  0.007   0.000   0.011   0.000  -0.004  -0.002  -0.000   0.002  -0.000   0.001  -0.020   0.008   0.000   0.000   0.000   0.000
  0.003   0.000   0.007   0.000  -0.002  -0.001  -0.000  -0.003  -0.000   0.001   0.008  -0.002   0.000   0.000   0.000   0.000
  0.000   0.000   0.000   0.000   0.000   0.000   0.000   0.000   0.000   0.000   0.000   0.000  -0.002   0.000   0.001   0.000
  0.000   0.000   0.000   0.000   0.000   0.000   0.000   0.000   0.000   0.000   0.000   0.000   0.000   0.007  -0.000  -0.000
  0.000   0.000   0.000   0.000   0.000   0.000   0.000   0.000   0.000   0.000   0.000   0.000   0.001  -0.000  -0.003  -0.000
  0.000   0.000   0.000   0.000   0.000   0.000   0.000   0.000   0.000   0.000   0.000   0.000   0.000  -0.000  -0.000  -0.000
  0.000   0.000   0.000   0.000   0.000   0.000   0.000   0.000   0.000   0.000   0.000   0.000   0.000   0.000   0.000   0.000
  0.000   0.000   0.000   0.000   0.000   0.000   0.000   0.000   0.000   0.000   0.000   0.000  -0.000  -0.000   0.000   0.000


------------------------ aborting loop because EDIFF is reached ----------------------------------------





 total charge

# of ion       s       p       d       tot
------------------------------------------
    1        0.392   0.450   7.465   8.307
    2        0.392   0.450   7.465   8.307
    3        0.392   0.450   7.465   8.307
    4        1.131   1.234  10.062  12.426
    5        1.131   1.234  10.062  12.426
    6        1.143   1.113  10.035  12.291
--------------------------------------------------
tot          4.582   4.930  52.553  62.066



 magnetization (x)

# of ion       s       p       d       tot
------------------------------------------
    1        0.000   0.003   0.212   0.215
    2        0.000   0.003   0.212   0.215
    3        0.000   0.003   0.212   0.215
    4       -0.002   0.010   0.002   0.010
    5       -0.002   0.010   0.002   0.010
    6       -0.009  -0.014  -0.001  -0.025
--------------------------------------------------
tot         -0.012   0.015   0.638   0.641
 
    CHARGE:  cpu time      0.0239: real time      0.0239
    FORLOC:  cpu time      0.0008: real time      0.0008
    FORNL :  cpu time      0.0238: real time      0.0238
    STRESS:  cpu time      0.2000: real time      0.2000
    FORCOR:  cpu time      0.0256: real time      0.0256
    FORHAR:  cpu time      0.0026: real time      0.0026
    MIXING:  cpu time      0.0009: real time      0.0009
    OFIELD:  cpu time      0.0000: real time      0.0000

  FORCE on cell =-STRESS in cart. coord.  units (eV):
  Direction    XX          YY          ZZ          XY          YZ          ZX
  --------------------------------------------------------------------------------------
  Alpha Z   255.86941   255.86941   255.86941
  Ewald   -2119.67165 -2119.67165 -2110.11408    -0.00000    -0.00000     0.00000
  Hartree   653.32254   653.32254   622.59354     0.00000    -0.00000    -0.00000
  E(xc)    -351.14507  -351.14505  -351.36464     0.00000     0.00000    -0.00000
  Local    -145.54260  -145.54250  -118.07020    -0.00000     0.00000    -0.00000
  n-local   177.26464   177.08411   176.99909    -0.27621     0.00039    -0.00000
  augment  1010.97797  1010.97787  1011.04090    -0.00000    -0.00000     0.00000
  Kinetic   514.50753   522.87822   513.06382     6.61945    -0.00068    -0.00021
  Fock        0.00000     0.00000     0.00000     0.00000     0.00000     0.00000
  -------------------------------------------------------------------------------------
  Total      -0.32213    -0.32213     0.01784     0.00000    -0.00000     0.00000
  in kB      -5.02112    -5.02112     0.27801     0.00000    -0.00000     0.00000
  external pressure =       -3.25 kB  Pullay stress =        0.00 kB


 VOLUME and BASIS-vectors are now :
 -----------------------------------------------------------------------------
  energy-cutoff  :      520.00
  volume of cell :      102.79
      direct lattice vectors                 reciprocal lattice vectors
     2.646208869 -4.583368208  0.000000000     0.188949559 -0.109090079  0.000000000
     2.646208869  4.583368208  0.000000000     0.188949559  0.109090079  0.000000000
     0.000000000  0.000000000  4.237435989     0.000000000  0.000000000  0.235991765

  length of vectors
     5.292417738  5.292417738  4.237435989     0.218180158  0.218180158  0.235991765


 FORCES acting on ions
    electron-ion (+dipol)            ewald-force                    non-local-force                 convergence-correction
 -----------------------------------------------------------------------------------------------
   -.682E-13 -.148E-12 0.408E-13   0.603E-13 0.825E-13 -.117E-13   -.210E-21 -.160E-21 -.920E-22   -.374E-13 0.354E-13 0.111E-13
   0.233E-11 0.497E-11 -.372E-11   -.946E-14 0.291E-13 -.139E-13   -.921E-22 0.109E-21 0.116E-21   0.110E-12 0.450E-13 0.186E-13
   -.621E-13 0.942E-13 -.374E-11   0.545E-13 -.899E-13 -.119E-13   0.141E-21 0.236E-21 0.110E-21   0.325E-13 -.106E-12 0.436E-13
   -.245E-11 -.374E-06 -.290E-10   -.451E-13 -.444E-10 0.199E-13   -.593E-17 0.477E-16 -.583E-22   0.530E-13 0.104E-07 0.840E-13
   0.362E-12 0.374E-06 -.570E-11   -.775E-13 0.444E-10 0.194E-13   0.394E-17 -.566E-17 0.580E-22   0.298E-13 -.104E-07 0.243E-13
   0.485E-13 -.363E-13 0.122E-12   0.288E-13 0.423E-14 -.161E-14   -.131E-21 0.111E-21 0.257E-21   -.155E-12 0.143E-12 0.702E-13
 -----------------------------------------------------------------------------------------------
   0.157E-12 0.482E-11 -.420E-10   0.115E-13 0.246E-15 0.181E-15   -.199E-17 0.421E-16 0.391E-21   0.329E-13 -.261E-13 0.252E-12
 
 
 POSITION                                       TOTAL-FORCE (eV/Angst)
 -----------------------------------------------------------------------------------
      1.32310      2.29168      0.00000         0.000000     -0.000000     -0.000000
      2.64621      0.00000      0.00000         0.000000     -0.000000     -0.000000
      1.32310     -2.29168      0.00000         0.000000     -0.000000     -0.000000
      2.64621     -1.52779      2.11872        -0.000000     -0.000000      0.000000
      2.64621      1.52779      2.11872         0.000000      0.000000      0.000000
      0.00000      0.00000      0.00000         0.000000     -0.000000     -0.000000
 -----------------------------------------------------------------------------------
    total drift:                                0.000000      0.000000     -0.000000


--------------------------------------------------------------------------------------------------------



  FREE ENERGIE OF THE ION-ELECTRON SYSTEM (eV)
  ---------------------------------------------------
  free  energy   TOTEN  =       -33.31061682 eV

  energy  without entropy=      -33.31061682  energy(sigma->0) =      -33.31061682
 


--------------------------------------------------------------------------------------------------------


    POTLOK:  cpu time      0.5680: real time      0.5680


--------------------------------------------------------------------------------------------------------


 writing wavefunctions
     LOOP+:  cpu time     11.6728: real time     11.6736
 -----------------------------------------------------------------------------
|                                                                             |
|           W    W    AA    RRRRR   N    N  II  N    N   GGGG   !!!           |
|           W    W   A  A   R    R  NN   N  II  NN   N  G    G  !!!           |
|           W    W  A    A  R    R  N N  N  II  N N  N  G       !!!           |
|           W WW W  AAAAAA  RRRRR   N  N N  II  N  N N  G  GGG   !            |
|           WW  WW  A    A  R   R   N   NN  II  N   NN  G    G                |
|           W    W  A    A  R    R  N    N  II  N    N   GGGG   !!!           |
|                                                                             |
|     Tetrahedron method does not include variations of the Fermi             |
|     occupations, so forces and stress will be inaccurate. We suggest        |
|     using a different smearing scheme ISMEAR = 1 or 2 for metals in         |
|     relaxations.                                                            |
|                                                                             |
 -----------------------------------------------------------------------------

    4ORBIT:  cpu time      0.0000: real time      0.0000



 total charge

# of ion       s       p       d       tot
------------------------------------------
    1        0.392   0.450   7.465   8.307
    2        0.392   0.450   7.465   8.307
    3        0.392   0.450   7.465   8.307
    4        1.131   1.234  10.062  12.426
    5        1.131   1.234  10.062  12.426
    6        1.143   1.113  10.035  12.291
--------------------------------------------------
tot          4.582   4.930  52.553  62.066



 magnetization (x)

# of ion       s       p       d       tot
------------------------------------------
    1        0.000   0.003   0.212   0.215
    2        0.000   0.003   0.212   0.215
    3        0.000   0.003   0.212   0.215
    4       -0.002   0.010   0.002   0.010
    5       -0.002   0.010   0.002   0.010
    6       -0.009  -0.014  -0.001  -0.025
--------------------------------------------------
tot         -0.012   0.015   0.638   0.641
 
 BZINTS: Fermi energy:    9.880518;   69.000000 electrons
         Band energy:-0.761334E+02;  BLOECHL correction:   -0.342081

 total amount of memory used by VASP MPI-rank0    41130. kBytes
=======================================================================

   base      :      30000. kBytes
   nonl-proj :       3474. kBytes
   fftplans  :        901. kBytes
   grid      :       5826. kBytes
   one-center:        186. kBytes
   wavefun   :        743. kBytes
 
  
  
 General timing and accounting informations for this job:
 ========================================================
  
                  Total CPU time used (sec):       13.107
                            User time (sec):       12.547
                          System time (sec):        0.560
                         Elapsed time (sec):       13.350
  
                   Maximum memory used (kb):      152376.
                   Average memory used (kb):          N/A
  
                          Minor page faults:        12627
                          Major page faults:         4414
                 Voluntary context switches:           67
