<?xml version="1.0" encoding="ISO-8859-1"?>
<modeling>
 <generator>
  <i name="program" type="string">vasp </i>
  <i name="version" type="string">6.4.3  </i>
  <i name="subversion" type="string">19Mar24 (build Jan 23 2025 16:17:14) complex                          parallel </i>
  <i name="platform" type="string">LinuxIFC </i>
  <i name="date" type="string">2025 01 25 </i>
  <i name="time" type="string">21:19:31 </i>
 </generator>
 <incar>
  <i type="string" name="SYSTEM">CoSn</i>
  <i type="string" name="PREC">Low</i>
  <i type="string" name="ALGO">Normal</i>
  <i type="int" name="ISPIN">     2</i>
  <i type="int" name="NELM">   100</i>
  <i type="int" name="NELMIN">     2</i>
  <i type="int" name="IBRION">    -1</i>
  <i name="EDIFF">      0.00010000</i>
  <i name="EDIFFG">     -0.01000000</i>
  <i type="int" name="NSW">     0</i>
  <i type="int" name="ISIF">     3</i>
  <i name="ENCUT">    400.00000000</i>
  <v name="MAGMOM">      0.00000000      0.00000000      0.00000000      0.00000000      0.00000000      0.00000000</v>
  <i type="int" name="ISMEAR">     0</i>
  <i name="SIGMA">      0.01000000</i>
  <i type="logical" name="LWAVE"> T  </i>
  <i type="logical" name="LCHARG"> T  </i>
  <i type="int" name="LORBIT">    11</i>
 </incar>
 <primitive_cell>
  <structure name="primitive_cell" >
   <crystal>
    <varray name="basis" >
     <v>       2.62301996      -4.54320385       0.00000000 </v>
     <v>       2.62301996       4.54320385       0.00000000 </v>
     <v>       0.00000000       0.00000000       4.18759030 </v>
    </varray>
    <i name="volume">     99.80631021 </i>
    <varray name="rec_basis" >
     <v>       0.19061998      -0.11005449       0.00000000 </v>
     <v>       0.19061998       0.11005449       0.00000000 </v>
     <v>       0.00000000       0.00000000       0.23880082 </v>
    </varray>
   </crystal>
   <varray name="positions" >
    <v>       0.00000000       0.50000000       0.00000000 </v>
    <v>       0.50000000       0.50000000       0.00000000 </v>
    <v>       0.50000000       0.00000000       0.00000000 </v>
    <v>       0.66666667       0.33333333       0.50000000 </v>
    <v>       0.33333333       0.66666667       0.50000000 </v>
    <v>       0.00000000       0.00000000       0.00000000 </v>
   </varray>
  </structure>
  <varray name="primitive_index" >
   <v type="int" >        1 </v>
   <v type="int" >        2 </v>
   <v type="int" >        3 </v>
   <v type="int" >        4 </v>
   <v type="int" >        5 </v>
   <v type="int" >        6 </v>
  </varray>
 </primitive_cell>
 <kpoints>
  <generation param="Monkhorst-Pack">
   <v type="int" name="divisions">       3        3        2 </v>
   <v name="usershift">      0.00000000       0.00000000       0.00000000 </v>
   <v name="genvec1">      0.33333333       0.00000000       0.00000000 </v>
   <v name="genvec2">      0.00000000       0.33333333       0.00000000 </v>
   <v name="genvec3">      0.00000000       0.00000000       0.50000000 </v>
   <v name="shift">      0.00000000       0.00000000       0.50000000 </v>
  </generation>
  <varray name="kpointlist" >
   <v>       0.00000000       0.00000000       0.25000000 </v>
   <v>       0.33333333       0.00000000       0.25000000 </v>
   <v>       0.33333333       0.33333333       0.25000000 </v>
  </varray>
  <varray name="weights" >
   <v>       0.11111111 </v>
   <v>       0.66666667 </v>
   <v>       0.22222222 </v>
  </varray>
 </kpoints>
 <parameters>
  <separator name="general" >
   <i type="string" name="SYSTEM">CoSn</i>
   <i type="logical" name="LCOMPAT"> F  </i>
  </separator>
  <separator name="electronic" >
   <i type="string" name="PREC">low</i>
   <i name="ENMAX">    400.00000000</i>
   <i name="ENAUG">    477.81800000</i>
   <i name="EDIFF">      0.00010000</i>
   <i type="int" name="IALGO">    38</i>
   <i type="int" name="IWAVPR">    10</i>
   <i type="int" name="NBANDS">    48</i>
   <i type="int" name="NBANDSLOW">    -1</i>
   <i type="int" name="NBANDSHIGH">    -1</i>
   <i name="NELECT">     69.00000000</i>
   <i type="int" name="TURBO">     0</i>
   <i type="int" name="IRESTART">     0</i>
   <i type="int" name="NREBOOT">     0</i>
   <i type="int" name="NMIN">     0</i>
   <i name="EREF">      0.00000000</i>
   <separator name="electronic smearing" >
    <i type="int" name="ISMEAR">     0</i>
    <i name="SIGMA">      0.01000000</i>
    <i name="KSPACING">      0.50000000</i>
    <i type="logical" name="KGAMMA"> T  </i>
    <i type="logical" name="KBLOWUP"> T  </i>
   </separator>
   <separator name="electronic projectors" >
    <i type="logical" name="LREAL"> F  </i>
    <v name="ROPT">      0.00000000      0.00000000</v>
    <i type="int" name="LMAXPAW">  -100</i>
    <i type="int" name="LMAXMIX">     2</i>
    <i type="logical" name="NLSPLINE"> F  </i>
   </separator>
   <separator name="electronic startup" >
    <i type="int" name="ISTART">     0</i>
    <i type="int" name="ICHARG">     2</i>
    <i type="int" name="INIWAV">     1</i>
   </separator>
   <separator name="electronic spin" >
    <i type="int" name="ISPIN">     2</i>
    <i type="logical" name="LNONCOLLINEAR"> F  </i>
    <v name="MAGMOM">      0.00000000      0.00000000      0.00000000      0.00000000      0.00000000      0.00000000</v>
    <i name="NUPDOWN">     -1.00000000</i>
    <i type="logical" name="LSORBIT"> F  </i>
    <v name="SAXIS">      0.00000000      0.00000000      1.00000000</v>
    <i type="logical" name="LSPIRAL"> F  </i>
    <v name="QSPIRAL">      0.00000000      0.00000000      0.00000000</v>
    <i type="logical" name="LZEROZ"> F  </i>
   </separator>
   <separator name="electronic exchange-correlation" >
    <i type="logical" name="LASPH"> F  </i>
   </separator>
   <separator name="electronic convergence" >
    <i type="int" name="NELM">   100</i>
    <i type="int" name="NELMDL">    -5</i>
    <i type="int" name="NELMIN">     2</i>
    <i name="ENINI">    400.00000000</i>
    <separator name="electronic convergence detail" >
     <i type="logical" name="LDIAG"> T  </i>
     <i type="logical" name="LSUBROT"> F  </i>
     <i name="WEIMIN">      0.00000000</i>
     <i name="EBREAK">      0.00000052</i>
     <i name="DEPER">      0.30000000</i>
     <i type="int" name="NRMM">     4</i>
     <i name="TIME">      0.40000000</i>
    </separator>
   </separator>
   <separator name="electronic mixer" >
    <i name="AMIX">      0.40000000</i>
    <i name="BMIX">      1.00000000</i>
    <i name="AMIN">      0.10000000</i>
    <i name="AMIX_MAG">      1.60000000</i>
    <i name="BMIX_MAG">      1.00000000</i>
    <separator name="electronic mixer details" >
     <i type="int" name="IMIX">     4</i>
     <i type="logical" name="MIXFIRST"> F  </i>
     <i type="int" name="MAXMIX">   -45</i>
     <i name="WC">    100.00000000</i>
     <i type="int" name="INIMIX">     1</i>
     <i type="int" name="MIXPRE">     1</i>
     <i type="int" name="MREMOVE">     5</i>
    </separator>
   </separator>
   <separator name="electronic dipolcorrection" >
    <i type="logical" name="LDIPOL"> F  </i>
    <i type="logical" name="LMONO"> F  </i>
    <i type="int" name="IDIPOL">     0</i>
    <i name="EPSILON">      1.00000000</i>
    <v name="DIPOL">   -100.00000000   -100.00000000   -100.00000000</v>
    <i name="EFIELD">      0.00000000</i>
    <i type="logical" name="LVACPOTAV"> F  </i>
   </separator>
  </separator>
  <separator name="grids" >
   <i type="int" name="NGX">    28</i>
   <i type="int" name="NGY">    28</i>
   <i type="int" name="NGZ">    20</i>
   <i type="int" name="NGXF">    28</i>
   <i type="int" name="NGYF">    28</i>
   <i type="int" name="NGZF">    24</i>
   <i type="logical" name="ADDGRID"> F  </i>
  </separator>
  <separator name="ionic" >
   <i type="int" name="NSW">     0</i>
   <i type="int" name="IBRION">    -1</i>
   <i type="int" name="MDALGO">     0</i>
   <i type="int" name="ISIF">     3</i>
   <i name="PSTRESS">      0.00000000</i>
   <i name="EDIFFG">     -0.01000000</i>
   <i type="int" name="NFREE">     0</i>
   <i name="POTIM">      0.50000000</i>
   <i name="SMASS">     -3.00000000</i>
   <i name="SCALEE">      1.00000000</i>
  </separator>
  <separator name="ionic md" >
   <i name="TEBEG">      0.00010000</i>
   <i name="TEEND">      0.00010000</i>
   <i type="int" name="NBLOCK">     1</i>
   <i type="int" name="KBLOCK">     1</i>
   <i type="int" name="NPACO">   256</i>
   <i name="APACO">     10.00000000</i>
  </separator>
  <separator name="symmetry" >
   <i type="int" name="ISYM">     2</i>
   <i name="SYMPREC">      0.00001000</i>
  </separator>
  <separator name="dos" >
   <i type="int" name="LORBIT">    11</i>
   <v name="RWIGS">     -1.00000000     -1.00000000</v>
   <i type="int" name="NEDOS">   301</i>
   <i name="EMIN">     10.00000000</i>
   <i name="EMAX">    -10.00000000</i>
   <i name="EFERMI">      0.00000000</i>
  </separator>
  <separator name="writing" >
   <i type="int" name="NWRITE">     2</i>
   <i type="logical" name="LWAVE"> T  </i>
   <i type="logical" name="LDOWNSAMPLE"> F  </i>
   <i type="logical" name="LCHARG"> T  </i>
   <i type="logical" name="LPARD"> F  </i>
   <i type="logical" name="LVTOT"> F  </i>
   <i type="logical" name="LVHAR"> F  </i>
   <i type="logical" name="LELF"> F  </i>
   <i type="logical" name="LOPTICS"> F  </i>
   <v name="STM">      0.00000000      0.00000000      0.00000000      0.00000000      0.00000000      0.00000000      0.00000000</v>
  </separator>
  <separator name="performance" >
   <i type="int" name="NPAR">    24</i>
   <i type="int" name="NSIM">     4</i>
   <i type="int" name="NBLK">    -1</i>
   <i type="logical" name="LPLANE"> T  </i>
   <i type="logical" name="LSCALAPACK"> T  </i>
   <i type="logical" name="LSCAAWARE"> F  </i>
   <i type="logical" name="LSCALU"> F  </i>
   <i type="logical" name="LASYNC"> F  </i>
   <i type="logical" name="LORBITALREAL"> F  </i>
  </separator>
  <separator name="miscellaneous" >
   <i type="int" name="IDIOT">     3</i>
   <i type="int" name="PHON_NSTRUCT">    -1</i>
   <i type="logical" name="LMUSIC"> F  </i>
   <v name="POMASS">     58.93300000    118.71000000</v>
   <v name="DARWINR">      0.00000000      0.00000000</v>
   <v name="DARWINV">      1.00000000      1.00000000</v>
   <i type="logical" name="LCORR"> T  </i>
  </separator>
  <i type="logical" name="GGA_COMPAT"> T  </i>
  <i type="logical" name="LBERRY"> F  </i>
  <i type="int" name="ICORELEVEL">     0</i>
  <i type="logical" name="LDAU"> F  </i>
  <i type="int" name="I_CONSTRAINED_M">     0</i>
  <separator name="electronic exchange-correlation" >
   <i type="string" name="GGA    ">PE</i>
   <i type="string" name="XC_C">1</i>
   <i type="int" name="VOSKOWN">     0</i>
   <i type="logical" name="LHFCALC"> F  </i>
   <i type="string" name="PRECFOCK"></i>
   <i type="logical" name="LSYMGRAD"> F  </i>
   <i type="logical" name="LHFONE"> F  </i>
   <i type="logical" name="LRHFCALC"> F  </i>
   <i type="logical" name="LTHOMAS"> F  </i>
   <i type="logical" name="LMODELHF"> F  </i>
   <i type="logical" name="LFOCKACE"> F  </i>
   <i name="ENCUT4O">     -1.00000000</i>
   <i type="int" name="EXXOEP">     0</i>
   <i type="int" name="FOURORBIT">     0</i>
   <i name="AEXX">      0.00000000</i>
   <i name="HFALPHA">      0.00000000</i>
   <i name="MCALPHA">      0.00000000</i>
   <i name="ALDAX">      1.00000000</i>
   <i name="AGGAX">      1.00000000</i>
   <i name="AMGGAX">      1.00000000</i>
   <i name="ALDAC">      1.00000000</i>
   <i name="AGGAC">      1.00000000</i>
   <i name="AMGGAC">      1.00000000</i>
   <i type="int" name="NKREDX">     1</i>
   <i type="int" name="NKREDY">     1</i>
   <i type="int" name="NKREDZ">     1</i>
   <i type="logical" name="SHIFTRED"> F  </i>
   <i type="logical" name="ODDONLY"> F  </i>
   <i type="logical" name="EVENONLY"> F  </i>
   <i type="int" name="LMAXFOCK">     0</i>
   <i type="int" name="NMAXFOCKAE">     0</i>
   <i type="logical" name="LFOCKAEDFT"> F  </i>
   <i name="HFSCREEN">      0.00000000</i>
   <i name="HFSCREENC">      0.00000000</i>
   <i type="int" name="NBANDSGWLOW">     0</i>
  </separator>
  <separator name="vdW DFT" >
   <i type="logical" name="LUSE_VDW"> F  </i>
   <i type="int" name="IVDW_NL">    -1</i>
   <i type="logical" name="LSPIN_VDW"> F  </i>
   <i name="ZAB_VDW">     -0.84910000</i>
   <i name="GAMMA_VDW">      1.39626340</i>
   <i name="ALPHA_VDW">      0.00000000</i>
   <i name="PARAM1">      0.12340000</i>
   <i name="PARAM2">      1.00000000</i>
   <i name="BPARAM">      6.30000000</i>
   <i name="CPARAM">      0.00930000</i>
  </separator>
  <separator name="model GW" >
   <i type="int" name="MODEL_GW">     0</i>
   <i name="MODEL_EPS0">      9.98063102</i>
   <i name="MODEL_ALPHA">      1.00000000</i>
  </separator>
  <separator name="linear response parameters" >
   <i type="logical" name="LEPSILON"> F  </i>
   <i type="logical" name="LRPA"> F  </i>
   <i type="logical" name="LNABLA"> F  </i>
   <i type="logical" name="LVEL"> F  </i>
   <i name="CSHIFT">      0.10000000</i>
   <i name="OMEGAMAX">     -1.00000000</i>
   <i name="DEG_THRESHOLD">      0.00200000</i>
   <i name="RTIME">     -0.10000000</i>
   <i name="WPLASMAI">      0.00000000</i>
   <v name="DFIELD">      0.00000000      0.00000000      0.00000000</v>
   <v name="WPLASMA">      0.00000000      0.00000000      0.00000000      0.00000000      0.00000000      0.00000000      0.00000000      0.00000000      0.00000000</v>
  </separator>
  <separator name="orbital magnetization" >
   <i type="logical" name="NUCIND"> F  </i>
   <v name="MAGPOS">      0.00000000      0.00000000      0.00000000</v>
   <i type="logical" name="LNICSALL"> T  </i>
   <i type="logical" name="ORBITALMAG"> F  </i>
   <i type="logical" name="LMAGBLOCH"> F  </i>
   <i type="logical" name="LCHIMAG"> F  </i>
   <i type="logical" name="LGAUGE"> T  </i>
   <i type="int" name="MAGATOM">     0</i>
   <v name="MAGDIPOL">      0.00000000      0.00000000      0.00000000</v>
   <v name="AVECCONST">      0.00000000      0.00000000      0.00000000</v>
  </separator>
  <separator name="response functions" >
   <i type="logical" name="LALL_IN_ONE"> F  </i>
   <i type="int" name="IALL_IN_ONE">    -1</i>
   <i type="int" name="NBANDS_WAVE">    -1</i>
   <i type="logical" name="LFINITE_TEMPERATURE"> F  </i>
   <i type="logical" name="LADDER"> F  </i>
   <i type="logical" name="LRPAFORCE"> F  </i>
   <i type="logical" name="LFXC"> F  </i>
   <i type="logical" name="LHARTREE"> T  </i>
   <i type="int" name="IBSE">     0</i>
   <v type="int" name="KPOINT">    -1     0     0     0</v>
   <i type="logical" name="LTCTC"> F  </i>
   <i type="logical" name="LTCTE"> F  </i>
   <i type="logical" name="LTETE"> F  </i>
   <i type="logical" name="LTRIPLET"> F  </i>
   <i type="logical" name="LFXCEPS"> F  </i>
   <i type="logical" name="LFXHEG"> F  </i>
   <i type="int" name="NATURALO">     2</i>
   <i type="logical" name="LHOLEGF"> F  </i>
   <i type="logical" name="L2ORDER"> F  </i>
   <i type="logical" name="LDMP1"> F  </i>
   <i type="logical" name="LMP2LT"> F  </i>
   <i type="logical" name="LSMP2LT"> F  </i>
   <i type="logical" name="LGWLF"> F  </i>
   <i name="ENCUTGW">     -1.60000002</i>
   <i name="ENCUTGWSOFT">     -1.60000002</i>
   <i name="ENCUTLF">     -1.00000000</i>
   <i type="logical" name="ESF_SPLINES"> F  </i>
   <i name="ESF_CONV">      0.01000000</i>
   <i type="int" name="ESF_NINTER">    15</i>
   <i type="int" name="LMAXMP2">    -1</i>
   <i name="SCISSOR">      0.00000000</i>
   <i type="int" name="NOMEGA">     0</i>
   <i type="int" name="NOMEGAR">     0</i>
   <i type="int" name="NBANDSGW">    -1</i>
   <i type="int" name="NBANDSO">    -1</i>
   <i type="int" name="NBANDSV">    -1</i>
   <i type="int" name="NELMGW">     1</i>
   <i type="int" name="NELMHF">     1</i>
   <i type="int" name="DIM">     3</i>
   <i type="int" name="IESPILON">     4</i>
   <i type="int" name="ANTIRES">     0</i>
   <i name="OMEGAMAX">    -30.00000000</i>
   <i name="OMEGAMIN">    -30.00000000</i>
   <i name="OMEGATL">   -200.00000000</i>
   <i type="int" name="OMEGAGRID">     0</i>
   <i name="CSHIFT">     -0.10000000</i>
   <i type="logical" name="LSELFENERGY"> F  </i>
   <i type="logical" name="LSPECTRAL"> F  </i>
   <i type="logical" name="LSPECTRALGW"> F  </i>
   <i type="logical" name="LSINGLES"> F  </i>
   <i type="logical" name="LFERMIGW"> F  </i>
   <i type="logical" name="ODDONLYGW"> F  </i>
   <i type="logical" name="EVENONLYGW"> F  </i>
   <i type="int" name="NKREDLFX">     1</i>
   <i type="int" name="NKREDLFY">     1</i>
   <i type="int" name="NKREDLFZ">     1</i>
   <i type="int" name="MAXMEM">  2800</i>
   <i type="int" name="TELESCOPE">     0</i>
   <i type="int" name="NTAUPAR">    -1</i>
   <i type="int" name="NOMEGAPAR">    -1</i>
   <i name="DAMP_NEWTON">      0.80000001</i>
   <i name="LAMBDA">      1.00000000</i>
  </separator>
  <separator name="External order field" >
   <i name="OFIELD_KAPPA">      0.00000000</i>
   <v name="OFIELD_K">      0.00000000      0.00000000      0.00000000</v>
   <i name="OFIELD_Q6_NEAR">      0.00000000</i>
   <i name="OFIELD_Q6_FAR">      0.00000000</i>
   <i name="OFIELD_A">      0.00000000</i>
  </separator>
  <separator name="optional k-points parameters" >
   <i type="int" name="KPOINTS_OPT_MODE">     1</i>
   <i type="logical" name="LKPOINTS_OPT"> F  </i>
  </separator>
 </parameters>
 <atominfo>
  <atoms>       6 </atoms>
  <types>       2 </types>
  <array name="atoms" >
   <dimension dim="1">ion</dimension>
   <field type="string">element</field>
   <field type="int">atomtype</field>
   <set>
    <rc><c>Co</c><c>   1</c></rc>
    <rc><c>Co</c><c>   1</c></rc>
    <rc><c>Co</c><c>   1</c></rc>
    <rc><c>Sn</c><c>   2</c></rc>
    <rc><c>Sn</c><c>   2</c></rc>
    <rc><c>Sn</c><c>   2</c></rc>
   </set>
  </array>
  <array name="atomtypes" >
   <dimension dim="1">type</dimension>
   <field type="int">atomspertype</field>
   <field type="string">element</field>
   <field>mass</field>
   <field>valence</field>
   <field type="string">pseudopotential</field>
   <set>
    <rc><c>   3</c><c>Co</c><c>     58.93300000</c><c>      9.00000000</c><c>  PAW_PBE Co 02Aug2007                  </c></rc>
    <rc><c>   3</c><c>Sn</c><c>    118.71000000</c><c>     14.00000000</c><c>  PAW_PBE Sn_d 06Sep2000                </c></rc>
   </set>
  </array>
 </atominfo>
 <structure name="initialpos" >
  <crystal>
   <varray name="basis" >
    <v>       2.62301996      -4.54320385       0.00000000 </v>
    <v>       2.62301996       4.54320385       0.00000000 </v>
    <v>       0.00000000       0.00000000       4.18759030 </v>
   </varray>
   <i name="volume">     99.80631021 </i>
   <varray name="rec_basis" >
    <v>       0.19061998      -0.11005449       0.00000000 </v>
    <v>       0.19061998       0.11005449       0.00000000 </v>
    <v>       0.00000000       0.00000000       0.23880082 </v>
   </varray>
  </crystal>
  <varray name="positions" >
   <v>       0.00000000       0.50000000       0.00000000 </v>
   <v>       0.50000000       0.50000000       0.00000000 </v>
   <v>       0.50000000       0.00000000       0.00000000 </v>
   <v>       0.66666667       0.33333333       0.50000000 </v>
   <v>       0.33333333       0.66666667       0.50000000 </v>
   <v>       0.00000000       0.00000000       0.00000000 </v>
  </varray>
 </structure>
 <calculation>
  <scstep>
   <time name="dav">    0.16    0.16</time>
   <time name="total">    0.18    0.18</time>
   <energy>
    <i name="alphaZ">    263.51320076 </i>
    <i name="ewald">  -6412.03484340 </i>
    <i name="hartreedc">  -1947.62463937 </i>
    <i name="XCdc">    223.64923646 </i>
    <i name="pawpsdc">   6869.67995760 </i>
    <i name="pawaedc">  -7140.46295866 </i>
    <i name="eentropy">     -0.00000000 </i>
    <i name="bandstr">    413.95074782 </i>
    <i name="atom">   8119.38660263 </i>
    <i name="e_fr_energy">    390.05730383 </i>
    <i name="e_wo_entrp">    390.05730383 </i>
    <i name="e_0_energy">    390.05730383 </i>
   </energy>
  </scstep>
  <scstep>
   <time name="dav">    0.15    0.15</time>
   <time name="total">    0.15    0.15</time>
   <energy>
    <i name="e_fr_energy">    -10.24390265 </i>
    <i name="e_wo_entrp">    -10.24272483 </i>
    <i name="e_0_energy">    -10.24331374 </i>
   </energy>
  </scstep>
  <scstep>
   <time name="dav">    0.19    0.19</time>
   <time name="total">    0.19    0.19</time>
   <energy>
    <i name="e_fr_energy">    -34.78264477 </i>
    <i name="e_wo_entrp">    -34.77899239 </i>
    <i name="e_0_energy">    -34.78081858 </i>
   </energy>
  </scstep>
  <scstep>
   <time name="dav">    0.13    0.13</time>
   <time name="total">    0.13    0.13</time>
   <energy>
    <i name="e_fr_energy">    -35.24998016 </i>
    <i name="e_wo_entrp">    -35.24630127 </i>
    <i name="e_0_energy">    -35.24814071 </i>
   </energy>
  </scstep>
  <scstep>
   <time name="dav">    0.23    0.23</time>
   <time name="total">    0.24    0.24</time>
   <energy>
    <i name="e_fr_energy">    -35.27198816 </i>
    <i name="e_wo_entrp">    -35.26830925 </i>
    <i name="e_0_energy">    -35.27014871 </i>
   </energy>
  </scstep>
  <scstep>
   <time name="dav">    0.11    0.11</time>
   <time name="total">    0.13    0.13</time>
   <energy>
    <i name="e_fr_energy">    -36.54511949 </i>
    <i name="e_wo_entrp">    -36.54212346 </i>
    <i name="e_0_energy">    -36.54362147 </i>
   </energy>
  </scstep>
  <scstep>
   <time name="dav">    0.15    0.15</time>
   <time name="total">    0.16    0.16</time>
   <energy>
    <i name="e_fr_energy">    -33.01291401 </i>
    <i name="e_wo_entrp">    -33.00923512 </i>
    <i name="e_0_energy">    -33.01107457 </i>
   </energy>
  </scstep>
  <scstep>
   <time name="dav">    0.15    0.15</time>
   <time name="total">    0.17    0.17</time>
   <energy>
    <i name="e_fr_energy">    -32.74157342 </i>
    <i name="e_wo_entrp">    -32.73712923 </i>
    <i name="e_0_energy">    -32.73935132 </i>
   </energy>
  </scstep>
  <scstep>
   <time name="dav">    0.16    0.16</time>
   <time name="total">    0.18    0.18</time>
   <energy>
    <i name="e_fr_energy">    -32.73436439 </i>
    <i name="e_wo_entrp">    -32.73083891 </i>
    <i name="e_0_energy">    -32.73260165 </i>
   </energy>
  </scstep>
  <scstep>
   <time name="dav">    0.15    0.15</time>
   <time name="total">    0.17    0.17</time>
   <energy>
    <i name="e_fr_energy">    -32.73938221 </i>
    <i name="e_wo_entrp">    -32.73700522 </i>
    <i name="e_0_energy">    -32.73819372 </i>
   </energy>
  </scstep>
  <scstep>
   <time name="dav">    0.15    0.15</time>
   <time name="total">    0.17    0.17</time>
   <energy>
    <i name="e_fr_energy">    -32.74333965 </i>
    <i name="e_wo_entrp">    -32.74110211 </i>
    <i name="e_0_energy">    -32.74222088 </i>
   </energy>
  </scstep>
  <scstep>
   <time name="dav">    0.14    0.14</time>
   <time name="total">    0.16    0.16</time>
   <energy>
    <i name="e_fr_energy">    -32.73740728 </i>
    <i name="e_wo_entrp">    -32.73502904 </i>
    <i name="e_0_energy">    -32.73621816 </i>
   </energy>
  </scstep>
  <scstep>
   <time name="dav">    0.14    0.14</time>
   <time name="total">    0.16    0.16</time>
   <energy>
    <i name="e_fr_energy">    -32.73700479 </i>
    <i name="e_wo_entrp">    -32.73462062 </i>
    <i name="e_0_energy">    -32.73581270 </i>
   </energy>
  </scstep>
  <scstep>
   <time name="dav">    0.11    0.11</time>
   <time name="total">    0.13    0.13</time>
   <energy>
    <i name="e_fr_energy">    -32.73135180 </i>
    <i name="e_wo_entrp">    -32.72693827 </i>
    <i name="e_0_energy">    -32.72914504 </i>
   </energy>
  </scstep>
  <scstep>
   <time name="dav">    0.09    0.09</time>
   <time name="total">    0.11    0.11</time>
   <energy>
    <i name="e_fr_energy">    -32.73191099 </i>
    <i name="e_wo_entrp">    -32.72788187 </i>
    <i name="e_0_energy">    -32.72989643 </i>
   </energy>
  </scstep>
  <scstep>
   <time name="dav">    0.12    0.12</time>
   <time name="total">    0.14    0.14</time>
   <energy>
    <i name="e_fr_energy">    -32.73490110 </i>
    <i name="e_wo_entrp">    -32.73245789 </i>
    <i name="e_0_energy">    -32.73367950 </i>
   </energy>
  </scstep>
  <scstep>
   <time name="dav">    0.12    0.12</time>
   <time name="total">    0.14    0.14</time>
   <energy>
    <i name="e_fr_energy">    -32.73179852 </i>
    <i name="e_wo_entrp">    -32.72787757 </i>
    <i name="e_0_energy">    -32.72983805 </i>
   </energy>
  </scstep>
  <scstep>
   <time name="dav">    0.10    0.10</time>
   <time name="total">    0.12    0.12</time>
   <energy>
    <i name="e_fr_energy">    -32.73199122 </i>
    <i name="e_wo_entrp">    -32.72808615 </i>
    <i name="e_0_energy">    -32.73003869 </i>
   </energy>
  </scstep>
  <scstep>
   <time name="dav">    0.09    0.09</time>
   <time name="total">    0.11    0.11</time>
   <energy>
    <i name="e_fr_energy">    -32.73154258 </i>
    <i name="e_wo_entrp">    -32.72720379 </i>
    <i name="e_0_energy">    -32.72937318 </i>
   </energy>
  </scstep>
  <scstep>
   <time name="dav">    0.07    0.07</time>
   <time name="total">    0.08    0.08</time>
   <energy>
    <i name="alphaZ">    263.51320076 </i>
    <i name="ewald">  -6412.03484340 </i>
    <i name="hartreedc">  -1898.61528967 </i>
    <i name="XCdc">    220.87731276 </i>
    <i name="pawpsdc">   8875.56043693 </i>
    <i name="pawaedc">  -9151.53025319 </i>
    <i name="eentropy">     -0.00443465 </i>
    <i name="bandstr">    -49.88424444 </i>
    <i name="atom">   8119.38660263 </i>
    <i name="e_fr_energy">    -32.73151227 </i>
    <i name="e_wo_entrp">    -32.72707762 </i>
    <i name="e_0_energy">    -32.72929495 </i>
   </energy>
  </scstep>
  <structure>
   <crystal>
    <varray name="basis" >
     <v>       2.62301996      -4.54320385       0.00000000 </v>
     <v>       2.62301996       4.54320385       0.00000000 </v>
     <v>       0.00000000       0.00000000       4.18759030 </v>
    </varray>
    <i name="volume">     99.80631021 </i>
    <varray name="rec_basis" >
     <v>       0.19061998      -0.11005449       0.00000000 </v>
     <v>       0.19061998       0.11005449       0.00000000 </v>
     <v>       0.00000000       0.00000000       0.23880082 </v>
    </varray>
   </crystal>
   <varray name="positions" >
    <v>       0.00000000       0.50000000       0.00000000 </v>
    <v>       0.50000000       0.50000000       0.00000000 </v>
    <v>       0.50000000       0.00000000       0.00000000 </v>
    <v>       0.66666667       0.33333333       0.50000000 </v>
    <v>       0.33333333       0.66666667       0.50000000 </v>
    <v>       0.00000000       0.00000000       0.00000000 </v>
   </varray>
  </structure>
  <varray name="forces" >
   <v>       0.00000000      -0.00000000      -0.00000000 </v>
   <v>       0.00000000      -0.00000000      -0.00000000 </v>
   <v>       0.00000000      -0.00000000      -0.00000000 </v>
   <v>      -0.00000000      -0.00000000       0.00000000 </v>
   <v>       0.00000000       0.00000000      -0.00000000 </v>
   <v>       0.00000000      -0.00000000      -0.00000000 </v>
  </varray>
  <varray name="stress" >
   <v>      42.13907380      -0.00000000      -0.00000000 </v>
   <v>      -0.00000000      42.13907380       0.00000000 </v>
   <v>      -0.00000000      -0.00000000      70.80610409 </v>
  </varray>
  <energy>
   <i name="e_fr_energy">    -32.73151227 </i>
   <i name="e_wo_entrp">    -32.72707762 </i>
   <i name="e_0_energy">    -32.72929495 </i>
  </energy>
  <time name="totalsc">    3.19    3.19</time>
  <eigenvalues>
   <array>
    <dimension dim="1">band</dimension>
    <dimension dim="2">kpoint</dimension>
    <dimension dim="3">spin</dimension>
    <field>eigene</field>
    <field>occ</field>
    <set>
     <set comment="spin 1">
      <set comment="kpoint 1">
       <r>  -11.2924    1.0000 </r>
       <r>  -11.2770    1.0000 </r>
       <r>  -11.2763    1.0000 </r>
       <r>  -11.2098    1.0000 </r>
       <r>  -11.2096    1.0000 </r>
       <r>  -11.1704    1.0000 </r>
       <r>  -11.1704    1.0000 </r>
       <r>  -11.1415    1.0000 </r>
       <r>  -11.1330    1.0000 </r>
       <r>  -11.1325    1.0000 </r>
       <r>  -11.0513    1.0000 </r>
       <r>  -11.0513    1.0000 </r>
       <r>  -11.0120    1.0000 </r>
       <r>  -11.0116    1.0000 </r>
       <r>  -10.9876    1.0000 </r>
       <r>   -0.7876    1.0000 </r>
       <r>    2.7996    1.0000 </r>
       <r>    4.6650    1.0000 </r>
       <r>    5.7540    1.0000 </r>
       <r>    6.6149    1.0000 </r>
       <r>    6.6149    1.0000 </r>
       <r>    7.4839    1.0000 </r>
       <r>    7.6106    1.0000 </r>
       <r>    7.6107    1.0000 </r>
       <r>    8.0764    1.0000 </r>
       <r>    8.1300    1.0000 </r>
       <r>    8.1302    1.0000 </r>
       <r>    8.6560    1.0000 </r>
       <r>    8.6560    1.0000 </r>
       <r>    9.6653    1.0000 </r>
       <r>    9.7357    1.0000 </r>
       <r>    9.7358    1.0000 </r>
       <r>    9.7441    1.0000 </r>
       <r>    9.7442    1.0000 </r>
       <r>   10.6433    0.0000 </r>
       <r>   10.6875    0.0000 </r>
       <r>   10.7034    0.0000 </r>
       <r>   10.7036    0.0000 </r>
       <r>   12.4743    0.0000 </r>
       <r>   13.2267    0.0000 </r>
       <r>   14.1744    0.0000 </r>
       <r>   14.1747    0.0000 </r>
       <r>   15.0543    0.0000 </r>
       <r>   15.0544    0.0000 </r>
       <r>   15.7936    0.0000 </r>
       <r>   20.9837    0.0000 </r>
       <r>   20.9838    0.0000 </r>
       <r>   21.0365    0.0000 </r>
      </set>
      <set comment="kpoint 2">
       <r>  -11.3325    1.0000 </r>
       <r>  -11.3170    1.0000 </r>
       <r>  -11.2863    1.0000 </r>
       <r>  -11.2054    1.0000 </r>
       <r>  -11.1981    1.0000 </r>
       <r>  -11.1802    1.0000 </r>
       <r>  -11.1463    1.0000 </r>
       <r>  -11.1365    1.0000 </r>
       <r>  -11.0978    1.0000 </r>
       <r>  -11.0807    1.0000 </r>
       <r>  -11.0581    1.0000 </r>
       <r>  -11.0557    1.0000 </r>
       <r>  -11.0145    1.0000 </r>
       <r>  -10.9966    1.0000 </r>
       <r>  -10.9961    1.0000 </r>
       <r>    0.0204    1.0000 </r>
       <r>    2.3023    1.0000 </r>
       <r>    3.3104    1.0000 </r>
       <r>    5.4560    1.0000 </r>
       <r>    5.6918    1.0000 </r>
       <r>    6.7151    1.0000 </r>
       <r>    7.1935    1.0000 </r>
       <r>    7.5351    1.0000 </r>
       <r>    7.9561    1.0000 </r>
       <r>    8.1956    1.0000 </r>
       <r>    8.3706    1.0000 </r>
       <r>    8.4651    1.0000 </r>
       <r>    8.5209    1.0000 </r>
       <r>    8.7853    1.0000 </r>
       <r>    9.3170    1.0000 </r>
       <r>    9.7136    1.0000 </r>
       <r>    9.7192    1.0000 </r>
       <r>    9.7750    1.0000 </r>
       <r>    9.8681    1.0000 </r>
       <r>   10.4054    0.3440 </r>
       <r>   10.6601    0.0000 </r>
       <r>   11.5463    0.0000 </r>
       <r>   11.7206    0.0000 </r>
       <r>   12.4515    0.0000 </r>
       <r>   14.1994    0.0000 </r>
       <r>   14.4220    0.0000 </r>
       <r>   15.3493    0.0000 </r>
       <r>   16.4883    0.0000 </r>
       <r>   16.9546    0.0000 </r>
       <r>   17.7699    0.0000 </r>
       <r>   18.1587    0.0000 </r>
       <r>   18.5092    0.0000 </r>
       <r>   19.5324    0.0000 </r>
      </set>
      <set comment="kpoint 3">
       <r>  -11.3763    1.0000 </r>
       <r>  -11.2834    1.0000 </r>
       <r>  -11.2550    1.0000 </r>
       <r>  -11.2545    1.0000 </r>
       <r>  -11.1895    1.0000 </r>
       <r>  -11.1895    1.0000 </r>
       <r>  -11.1743    1.0000 </r>
       <r>  -11.1037    1.0000 </r>
       <r>  -11.1037    1.0000 </r>
       <r>  -11.0483    1.0000 </r>
       <r>  -11.0446    1.0000 </r>
       <r>  -11.0346    1.0000 </r>
       <r>  -11.0341    1.0000 </r>
       <r>  -10.9990    1.0000 </r>
       <r>  -10.9985    1.0000 </r>
       <r>    1.3919    1.0000 </r>
       <r>    1.3920    1.0000 </r>
       <r>    2.0690    1.0000 </r>
       <r>    5.8866    1.0000 </r>
       <r>    5.8866    1.0000 </r>
       <r>    6.0665    1.0000 </r>
       <r>    7.4828    1.0000 </r>
       <r>    7.4828    1.0000 </r>
       <r>    8.0700    1.0000 </r>
       <r>    8.0700    1.0000 </r>
       <r>    8.2405    1.0000 </r>
       <r>    8.4095    1.0000 </r>
       <r>    8.9260    1.0000 </r>
       <r>    8.9261    1.0000 </r>
       <r>    9.3099    1.0000 </r>
       <r>    9.3101    1.0000 </r>
       <r>    9.4417    1.0000 </r>
       <r>   10.0265    1.0000 </r>
       <r>   10.1258    1.0000 </r>
       <r>   10.1258    1.0000 </r>
       <r>   10.4061    0.3056 </r>
       <r>   11.8727    0.0000 </r>
       <r>   12.1288    0.0000 </r>
       <r>   12.1291    0.0000 </r>
       <r>   15.5475    0.0000 </r>
       <r>   15.5476    0.0000 </r>
       <r>   15.9256    0.0000 </r>
       <r>   17.1161    0.0000 </r>
       <r>   17.5173    0.0000 </r>
       <r>   17.5174    0.0000 </r>
       <r>   17.6102    0.0000 </r>
       <r>   19.2205    0.0000 </r>
       <r>   19.2209    0.0000 </r>
      </set>
     </set>
     <set comment="spin 2">
      <set comment="kpoint 1">
       <r>  -11.2924    1.0000 </r>
       <r>  -11.2770    1.0000 </r>
       <r>  -11.2763    1.0000 </r>
       <r>  -11.2097    1.0000 </r>
       <r>  -11.2096    1.0000 </r>
       <r>  -11.1704    1.0000 </r>
       <r>  -11.1703    1.0000 </r>
       <r>  -11.1415    1.0000 </r>
       <r>  -11.1330    1.0000 </r>
       <r>  -11.1324    1.0000 </r>
       <r>  -11.0513    1.0000 </r>
       <r>  -11.0513    1.0000 </r>
       <r>  -11.0120    1.0000 </r>
       <r>  -11.0116    1.0000 </r>
       <r>  -10.9876    1.0000 </r>
       <r>   -0.7873    1.0000 </r>
       <r>    2.7998    1.0000 </r>
       <r>    4.6649    1.0000 </r>
       <r>    5.7542    1.0000 </r>
       <r>    6.6153    1.0000 </r>
       <r>    6.6154    1.0000 </r>
       <r>    7.4835    1.0000 </r>
       <r>    7.6110    1.0000 </r>
       <r>    7.6111    1.0000 </r>
       <r>    8.0775    1.0000 </r>
       <r>    8.1308    1.0000 </r>
       <r>    8.1311    1.0000 </r>
       <r>    8.6566    1.0000 </r>
       <r>    8.6566    1.0000 </r>
       <r>    9.6670    1.0000 </r>
       <r>    9.7359    1.0000 </r>
       <r>    9.7361    1.0000 </r>
       <r>    9.7434    1.0000 </r>
       <r>    9.7435    1.0000 </r>
       <r>   10.6436    0.0000 </r>
       <r>   10.6884    0.0000 </r>
       <r>   10.7046    0.0000 </r>
       <r>   10.7047    0.0000 </r>
       <r>   12.4745    0.0000 </r>
       <r>   13.2261    0.0000 </r>
       <r>   14.1749    0.0000 </r>
       <r>   14.1752    0.0000 </r>
       <r>   15.0547    0.0000 </r>
       <r>   15.0548    0.0000 </r>
       <r>   15.7941    0.0000 </r>
       <r>   20.9840    0.0000 </r>
       <r>   20.9840    0.0000 </r>
       <r>   21.0363    0.0000 </r>
      </set>
      <set comment="kpoint 2">
       <r>  -11.3325    1.0000 </r>
       <r>  -11.3170    1.0000 </r>
       <r>  -11.2862    1.0000 </r>
       <r>  -11.2054    1.0000 </r>
       <r>  -11.1981    1.0000 </r>
       <r>  -11.1801    1.0000 </r>
       <r>  -11.1462    1.0000 </r>
       <r>  -11.1365    1.0000 </r>
       <r>  -11.0977    1.0000 </r>
       <r>  -11.0807    1.0000 </r>
       <r>  -11.0581    1.0000 </r>
       <r>  -11.0557    1.0000 </r>
       <r>  -11.0145    1.0000 </r>
       <r>  -10.9966    1.0000 </r>
       <r>  -10.9961    1.0000 </r>
       <r>    0.0206    1.0000 </r>
       <r>    2.3025    1.0000 </r>
       <r>    3.3105    1.0000 </r>
       <r>    5.4562    1.0000 </r>
       <r>    5.6922    1.0000 </r>
       <r>    6.7149    1.0000 </r>
       <r>    7.1940    1.0000 </r>
       <r>    7.5352    1.0000 </r>
       <r>    7.9568    1.0000 </r>
       <r>    8.1964    1.0000 </r>
       <r>    8.3712    1.0000 </r>
       <r>    8.4658    1.0000 </r>
       <r>    8.5219    1.0000 </r>
       <r>    8.7862    1.0000 </r>
       <r>    9.3180    1.0000 </r>
       <r>    9.7133    1.0000 </r>
       <r>    9.7191    1.0000 </r>
       <r>    9.7751    1.0000 </r>
       <r>    9.8686    1.0000 </r>
       <r>   10.4062    0.3037 </r>
       <r>   10.6613    0.0000 </r>
       <r>   11.5469    0.0000 </r>
       <r>   11.7210    0.0000 </r>
       <r>   12.4514    0.0000 </r>
       <r>   14.1998    0.0000 </r>
       <r>   14.4221    0.0000 </r>
       <r>   15.3494    0.0000 </r>
       <r>   16.4887    0.0000 </r>
       <r>   16.9549    0.0000 </r>
       <r>   17.7703    0.0000 </r>
       <r>   18.1591    0.0000 </r>
       <r>   18.5095    0.0000 </r>
       <r>   19.5325    0.0000 </r>
      </set>
      <set comment="kpoint 3">
       <r>  -11.3763    1.0000 </r>
       <r>  -11.2834    1.0000 </r>
       <r>  -11.2550    1.0000 </r>
       <r>  -11.2545    1.0000 </r>
       <r>  -11.1895    1.0000 </r>
       <r>  -11.1895    1.0000 </r>
       <r>  -11.1743    1.0000 </r>
       <r>  -11.1037    1.0000 </r>
       <r>  -11.1037    1.0000 </r>
       <r>  -11.0483    1.0000 </r>
       <r>  -11.0446    1.0000 </r>
       <r>  -11.0346    1.0000 </r>
       <r>  -11.0341    1.0000 </r>
       <r>  -10.9990    1.0000 </r>
       <r>  -10.9985    1.0000 </r>
       <r>    1.3921    1.0000 </r>
       <r>    1.3922    1.0000 </r>
       <r>    2.0691    1.0000 </r>
       <r>    5.8866    1.0000 </r>
       <r>    5.8866    1.0000 </r>
       <r>    6.0670    1.0000 </r>
       <r>    7.4829    1.0000 </r>
       <r>    7.4830    1.0000 </r>
       <r>    8.0705    1.0000 </r>
       <r>    8.0705    1.0000 </r>
       <r>    8.2412    1.0000 </r>
       <r>    8.4105    1.0000 </r>
       <r>    8.9272    1.0000 </r>
       <r>    8.9273    1.0000 </r>
       <r>    9.3107    1.0000 </r>
       <r>    9.3108    1.0000 </r>
       <r>    9.4405    1.0000 </r>
       <r>   10.0270    1.0000 </r>
       <r>   10.1259    1.0000 </r>
       <r>   10.1259    1.0000 </r>
       <r>   10.4073    0.2513 </r>
       <r>   11.8734    0.0000 </r>
       <r>   12.1292    0.0000 </r>
       <r>   12.1294    0.0000 </r>
       <r>   15.5475    0.0000 </r>
       <r>   15.5476    0.0000 </r>
       <r>   15.9258    0.0000 </r>
       <r>   17.1162    0.0000 </r>
       <r>   17.5176    0.0000 </r>
       <r>   17.5177    0.0000 </r>
       <r>   17.6105    0.0000 </r>
       <r>   19.2209    0.0000 </r>
       <r>   19.2213    0.0000 </r>
      </set>
     </set>
    </set>
   </array>
  </eigenvalues>
  <separator name="orbital magnetization" >
   <v name="MAGDIPOLOUT">      0.00000000      0.00000000      0.00000000</v>
  </separator>
  <dos>
   <i name="efermi">     10.40254794 </i>
   <total>
    <array>
     <dimension dim="1">gridpoints</dimension>
     <dimension dim="2">spin</dimension>
     <field>energy</field>
     <field>total</field>
     <field>integrated</field>
     <set>
      <set comment="spin 1">
       <r>   -12.9970     0.0000     0.0000 </r>
       <r>   -12.8781     0.0000     0.0000 </r>
       <r>   -12.7593     0.0000     0.0000 </r>
       <r>   -12.6404     0.0000     0.0000 </r>
       <r>   -12.5216     0.0000     0.0000 </r>
       <r>   -12.4027     0.0000     0.0000 </r>
       <r>   -12.2839     0.0000     0.0000 </r>
       <r>   -12.1650     0.0000     0.0000 </r>
       <r>   -12.0462     0.0000     0.0000 </r>
       <r>   -11.9273     0.0000     0.0000 </r>
       <r>   -11.8085     0.0000     0.0000 </r>
       <r>   -11.6896     0.0000     0.0000 </r>
       <r>   -11.5708     0.0000     0.0000 </r>
       <r>   -11.4519     0.0000     0.0000 </r>
       <r>   -11.3331     4.5533     0.5411 </r>
       <r>   -11.2143    15.1663     3.3580 </r>
       <r>   -11.0954    24.6931     8.8236 </r>
       <r>   -10.9766    38.2431    14.9895 </r>
       <r>   -10.8577     0.0000    15.0000 </r>
       <r>   -10.7389     0.0000    15.0000 </r>
       <r>   -10.6200     0.0000    15.0000 </r>
       <r>   -10.5012     0.0000    15.0000 </r>
       <r>   -10.3823     0.0000    15.0000 </r>
       <r>   -10.2635     0.0000    15.0000 </r>
       <r>   -10.1446     0.0000    15.0000 </r>
       <r>   -10.0258     0.0000    15.0000 </r>
       <r>    -9.9069     0.0000    15.0000 </r>
       <r>    -9.7881     0.0000    15.0000 </r>
       <r>    -9.6692     0.0000    15.0000 </r>
       <r>    -9.5504     0.0000    15.0000 </r>
       <r>    -9.4315     0.0000    15.0000 </r>
       <r>    -9.3127     0.0000    15.0000 </r>
       <r>    -9.1939     0.0000    15.0000 </r>
       <r>    -9.0750     0.0000    15.0000 </r>
       <r>    -8.9562     0.0000    15.0000 </r>
       <r>    -8.8373     0.0000    15.0000 </r>
       <r>    -8.7185     0.0000    15.0000 </r>
       <r>    -8.5996     0.0000    15.0000 </r>
       <r>    -8.4808     0.0000    15.0000 </r>
       <r>    -8.3619     0.0000    15.0000 </r>
       <r>    -8.2431     0.0000    15.0000 </r>
       <r>    -8.1242     0.0000    15.0000 </r>
       <r>    -8.0054     0.0000    15.0000 </r>
       <r>    -7.8865     0.0000    15.0000 </r>
       <r>    -7.7677     0.0000    15.0000 </r>
       <r>    -7.6488     0.0000    15.0000 </r>
       <r>    -7.5300     0.0000    15.0000 </r>
       <r>    -7.4112     0.0000    15.0000 </r>
       <r>    -7.2923     0.0000    15.0000 </r>
       <r>    -7.1735     0.0000    15.0000 </r>
       <r>    -7.0546     0.0000    15.0000 </r>
       <r>    -6.9358     0.0000    15.0000 </r>
       <r>    -6.8169     0.0000    15.0000 </r>
       <r>    -6.6981     0.0000    15.0000 </r>
       <r>    -6.5792     0.0000    15.0000 </r>
       <r>    -6.4604     0.0000    15.0000 </r>
       <r>    -6.3415     0.0000    15.0000 </r>
       <r>    -6.2227     0.0000    15.0000 </r>
       <r>    -6.1038     0.0000    15.0000 </r>
       <r>    -5.9850     0.0000    15.0000 </r>
       <r>    -5.8661     0.0000    15.0000 </r>
       <r>    -5.7473     0.0000    15.0000 </r>
       <r>    -5.6284     0.0000    15.0000 </r>
       <r>    -5.5096     0.0000    15.0000 </r>
       <r>    -5.3908     0.0000    15.0000 </r>
       <r>    -5.2719     0.0000    15.0000 </r>
       <r>    -5.1531     0.0000    15.0000 </r>
       <r>    -5.0342     0.0000    15.0000 </r>
       <r>    -4.9154     0.0000    15.0000 </r>
       <r>    -4.7965     0.0000    15.0000 </r>
       <r>    -4.6777     0.0000    15.0000 </r>
       <r>    -4.5588     0.0000    15.0000 </r>
       <r>    -4.4400     0.0000    15.0000 </r>
       <r>    -4.3211     0.0000    15.0000 </r>
       <r>    -4.2023     0.0000    15.0000 </r>
       <r>    -4.0834     0.0000    15.0000 </r>
       <r>    -3.9646     0.0000    15.0000 </r>
       <r>    -3.8457     0.0000    15.0000 </r>
       <r>    -3.7269     0.0000    15.0000 </r>
       <r>    -3.6080     0.0000    15.0000 </r>
       <r>    -3.4892     0.0000    15.0000 </r>
       <r>    -3.3704     0.0000    15.0000 </r>
       <r>    -3.2515     0.0000    15.0000 </r>
       <r>    -3.1327     0.0000    15.0000 </r>
       <r>    -3.0138     0.0000    15.0000 </r>
       <r>    -2.8950     0.0000    15.0000 </r>
       <r>    -2.7761     0.0000    15.0000 </r>
       <r>    -2.6573     0.0000    15.0000 </r>
       <r>    -2.5384     0.0000    15.0000 </r>
       <r>    -2.4196     0.0000    15.0000 </r>
       <r>    -2.3007     0.0000    15.0000 </r>
       <r>    -2.1819     0.0000    15.0000 </r>
       <r>    -2.0630     0.0000    15.0000 </r>
       <r>    -1.9442     0.0000    15.0000 </r>
       <r>    -1.8253     0.0000    15.0000 </r>
       <r>    -1.7065     0.0000    15.0000 </r>
       <r>    -1.5876     0.0000    15.0000 </r>
       <r>    -1.4688     0.0000    15.0000 </r>
       <r>    -1.3500     0.0000    15.0000 </r>
       <r>    -1.2311     0.0000    15.0000 </r>
       <r>    -1.1123     0.0000    15.0000 </r>
       <r>    -0.9934     0.0000    15.0000 </r>
       <r>    -0.8746     0.0000    15.0000 </r>
       <r>    -0.7557     0.9349    15.1111 </r>
       <r>    -0.6369     0.0000    15.1111 </r>
       <r>    -0.5180     0.0000    15.1111 </r>
       <r>    -0.3992     0.0000    15.1111 </r>
       <r>    -0.2803     0.0000    15.1111 </r>
       <r>    -0.1615     0.0000    15.1111 </r>
       <r>    -0.0426     0.0000    15.1111 </r>
       <r>     0.0762     5.6095    15.7778 </r>
       <r>     0.1951     0.0000    15.7778 </r>
       <r>     0.3139     0.0000    15.7778 </r>
       <r>     0.4327     0.0000    15.7778 </r>
       <r>     0.5516     0.0000    15.7778 </r>
       <r>     0.6704     0.0000    15.7778 </r>
       <r>     0.7893     0.0000    15.7778 </r>
       <r>     0.9081     0.0000    15.7778 </r>
       <r>     1.0270     0.0000    15.7778 </r>
       <r>     1.1458     0.0000    15.7778 </r>
       <r>     1.2647     0.0000    15.7778 </r>
       <r>     1.3835     0.4377    15.8298 </r>
       <r>     1.5024     0.0000    16.2222 </r>
       <r>     1.6212     0.0000    16.2222 </r>
       <r>     1.7401     0.0000    16.2222 </r>
       <r>     1.8589     0.0000    16.2222 </r>
       <r>     1.9778     0.0000    16.2222 </r>
       <r>     2.0966     1.8697    16.4444 </r>
       <r>     2.2155     0.0000    16.4444 </r>
       <r>     2.3343     5.6094    17.1111 </r>
       <r>     2.4531     0.0000    17.1111 </r>
       <r>     2.5720     0.0000    17.1111 </r>
       <r>     2.6908     0.0000    17.1111 </r>
       <r>     2.8097     0.8626    17.2136 </r>
       <r>     2.9285     0.0000    17.2222 </r>
       <r>     3.0474     0.0000    17.2222 </r>
       <r>     3.1662     0.0000    17.2222 </r>
       <r>     3.2851     0.0010    17.2223 </r>
       <r>     3.4039     0.0000    17.8889 </r>
       <r>     3.5228     0.0000    17.8889 </r>
       <r>     3.6416     0.0000    17.8889 </r>
       <r>     3.7605     0.0000    17.8889 </r>
       <r>     3.8793     0.0000    17.8889 </r>
       <r>     3.9982     0.0000    17.8889 </r>
       <r>     4.1170     0.0000    17.8889 </r>
       <r>     4.2359     0.0000    17.8889 </r>
       <r>     4.3547     0.0000    17.8889 </r>
       <r>     4.4735     0.0000    17.8889 </r>
       <r>     4.5924     0.0000    17.8889 </r>
       <r>     4.7112     0.9349    18.0000 </r>
       <r>     4.8301     0.0000    18.0000 </r>
       <r>     4.9489     0.0000    18.0000 </r>
       <r>     5.0678     0.0000    18.0000 </r>
       <r>     5.1866     0.0000    18.0000 </r>
       <r>     5.3055     0.0000    18.0000 </r>
       <r>     5.4243     0.0000    18.0000 </r>
       <r>     5.5432     0.0000    18.6667 </r>
       <r>     5.6620     0.0001    18.6667 </r>
       <r>     5.7809     0.9348    19.4444 </r>
       <r>     5.8997     3.6209    19.8748 </r>
       <r>     6.0186     0.0000    19.8889 </r>
       <r>     6.1374     1.8698    20.1111 </r>
       <r>     6.2563     0.0000    20.1111 </r>
       <r>     6.3751     0.0000    20.1111 </r>
       <r>     6.4939     0.0000    20.1111 </r>
       <r>     6.6128     0.7149    20.1961 </r>
       <r>     6.7316     5.5560    20.9936 </r>
       <r>     6.8505     0.0000    21.0000 </r>
       <r>     6.9693     0.0000    21.0000 </r>
       <r>     7.0882     0.0000    21.0000 </r>
       <r>     7.2070     5.4521    21.6480 </r>
       <r>     7.3259     0.0000    21.6667 </r>
       <r>     7.4447     0.0000    21.6667 </r>
       <r>     7.5636     6.5442    22.8889 </r>
       <r>     7.6824     1.8698    23.1111 </r>
       <r>     7.8013     0.0000    23.1111 </r>
       <r>     7.9201     0.0000    23.1111 </r>
       <r>     8.0390     0.0000    23.7778 </r>
       <r>     8.1578     1.8697    24.5555 </r>
       <r>     8.2766     1.8698    25.4444 </r>
       <r>     8.3955     5.6532    26.1163 </r>
       <r>     8.5143     6.5991    27.1176 </r>
       <r>     8.6332     0.0012    27.6668 </r>
       <r>     8.7520     0.0000    27.8889 </r>
       <r>     8.8709     0.0000    28.5556 </r>
       <r>     8.9897     3.7396    29.0000 </r>
       <r>     9.1086     0.0000    29.0000 </r>
       <r>     9.2274     0.0000    29.0000 </r>
       <r>     9.3463     9.3490    30.1111 </r>
       <r>     9.4651     1.8689    30.3332 </r>
       <r>     9.5840     0.0000    30.3333 </r>
       <r>     9.7028     1.3459    30.4933 </r>
       <r>     9.8217     7.4793    32.8889 </r>
       <r>     9.9405     5.6095    33.5556 </r>
       <r>    10.0594     1.8698    33.7778 </r>
       <r>    10.1782     3.7396    34.2222 </r>
       <r>    10.2970     0.0000    34.2222 </r>
       <r>    10.4159     6.9373    35.0467 </r>
       <r>    10.5347     0.0000    35.1111 </r>
       <r>    10.6536     1.8683    35.3331 </r>
       <r>    10.7724     1.8698    36.2222 </r>
       <r>    10.8913     0.0000    36.2222 </r>
       <r>    11.0101     0.0000    36.2222 </r>
       <r>    11.1290     0.0000    36.2222 </r>
       <r>    11.2478     0.0000    36.2222 </r>
       <r>    11.3667     0.0000    36.2222 </r>
       <r>    11.4855     0.0000    36.2222 </r>
       <r>    11.6044     5.6095    36.8889 </r>
       <r>    11.7232     3.6073    37.3176 </r>
       <r>    11.8421     0.0000    37.5556 </r>
       <r>    11.9609     0.0000    37.7778 </r>
       <r>    12.0798     0.0000    37.7778 </r>
       <r>    12.1986     3.7396    38.2222 </r>
       <r>    12.3174     0.0000    38.2222 </r>
       <r>    12.4363     0.0880    38.2327 </r>
       <r>    12.5551     0.0000    39.0000 </r>
       <r>    12.6740     0.0000    39.0000 </r>
       <r>    12.7928     0.0000    39.0000 </r>
       <r>    12.9117     0.0000    39.0000 </r>
       <r>    13.0305     0.0000    39.0000 </r>
       <r>    13.1494     0.0000    39.0000 </r>
       <r>    13.2682     0.9349    39.1111 </r>
       <r>    13.3871     0.0000    39.1111 </r>
       <r>    13.5059     0.0000    39.1111 </r>
       <r>    13.6248     0.0000    39.1111 </r>
       <r>    13.7436     0.0000    39.1111 </r>
       <r>    13.8625     0.0000    39.1111 </r>
       <r>    13.9813     0.0000    39.1111 </r>
       <r>    14.1002     0.0000    39.1111 </r>
       <r>    14.2190     7.4637    39.9981 </r>
       <r>    14.3378     0.0000    40.0000 </r>
       <r>    14.4567     5.6095    40.6667 </r>
       <r>    14.5755     0.0000    40.6667 </r>
       <r>    14.6944     0.0000    40.6667 </r>
       <r>    14.8132     0.0000    40.6667 </r>
       <r>    14.9321     0.0000    40.6667 </r>
       <r>    15.0509     0.5894    40.7367 </r>
       <r>    15.1698     0.0000    40.8889 </r>
       <r>    15.2886     0.0000    40.8889 </r>
       <r>    15.4075     5.6095    41.5556 </r>
       <r>    15.5263     0.0050    41.5562 </r>
       <r>    15.6452     0.0000    42.0000 </r>
       <r>    15.7640     0.0000    42.0000 </r>
       <r>    15.8829     0.0000    42.1111 </r>
       <r>    16.0017     1.8698    42.3333 </r>
       <r>    16.1205     0.0000    42.3333 </r>
       <r>    16.2394     0.0000    42.3333 </r>
       <r>    16.3582     0.0000    42.3333 </r>
       <r>    16.4771     0.3175    42.3711 </r>
       <r>    16.5959     0.0000    43.0000 </r>
       <r>    16.7148     0.0000    43.0000 </r>
       <r>    16.8336     0.0000    43.0000 </r>
       <r>    16.9525     2.1366    43.2539 </r>
       <r>    17.0713     0.0000    43.6667 </r>
       <r>    17.1902     1.8698    43.8889 </r>
       <r>    17.3090     0.0000    43.8889 </r>
       <r>    17.4279     0.0000    43.8889 </r>
       <r>    17.5467     3.7396    44.3333 </r>
       <r>    17.6656     1.8698    44.5556 </r>
       <r>    17.7844     5.4952    45.2086 </r>
       <r>    17.9033     0.0000    45.2222 </r>
       <r>    18.0221     0.0000    45.2222 </r>
       <r>    18.1409     0.0341    45.2263 </r>
       <r>    18.2598     0.0000    45.8889 </r>
       <r>    18.3786     0.0000    45.8889 </r>
       <r>    18.4975     0.2725    45.9213 </r>
       <r>    18.6163     0.0000    46.5556 </r>
       <r>    18.7352     0.0000    46.5556 </r>
       <r>    18.8540     0.0000    46.5556 </r>
       <r>    18.9729     0.0000    46.5556 </r>
       <r>    19.0917     0.0000    46.5556 </r>
       <r>    19.2106     0.2828    46.5892 </r>
       <r>    19.3294     0.0000    47.0000 </r>
       <r>    19.4483     0.0000    47.0000 </r>
       <r>    19.5671     5.6095    47.6667 </r>
       <r>    19.6860     0.0000    47.6667 </r>
       <r>    19.8048     0.0000    47.6667 </r>
       <r>    19.9237     0.0000    47.6667 </r>
       <r>    20.0425     0.0000    47.6667 </r>
       <r>    20.1613     0.0000    47.6667 </r>
       <r>    20.2802     0.0000    47.6667 </r>
       <r>    20.3990     0.0000    47.6667 </r>
       <r>    20.5179     0.0000    47.6667 </r>
       <r>    20.6367     0.0000    47.6667 </r>
       <r>    20.7556     0.0000    47.6667 </r>
       <r>    20.8744     0.0000    47.6667 </r>
       <r>    20.9933     1.7040    47.8692 </r>
       <r>    21.1121     0.9349    48.0000 </r>
       <r>    21.2310     0.0000    48.0000 </r>
       <r>    21.3498     0.0000    48.0000 </r>
       <r>    21.4687     0.0000    48.0000 </r>
       <r>    21.5875     0.0000    48.0000 </r>
       <r>    21.7064     0.0000    48.0000 </r>
       <r>    21.8252     0.0000    48.0000 </r>
       <r>    21.9441     0.0000    48.0000 </r>
       <r>    22.0629     0.0000    48.0000 </r>
       <r>    22.1817     0.0000    48.0000 </r>
       <r>    22.3006     0.0000    48.0000 </r>
       <r>    22.4194     0.0000    48.0000 </r>
       <r>    22.5383     0.0000    48.0000 </r>
       <r>    22.6571     0.0000    48.0000 </r>
      </set>
      <set comment="spin 2">
       <r>   -12.9970     0.0000     0.0000 </r>
       <r>   -12.8781     0.0000     0.0000 </r>
       <r>   -12.7593     0.0000     0.0000 </r>
       <r>   -12.6404     0.0000     0.0000 </r>
       <r>   -12.5216     0.0000     0.0000 </r>
       <r>   -12.4027     0.0000     0.0000 </r>
       <r>   -12.2839     0.0000     0.0000 </r>
       <r>   -12.1650     0.0000     0.0000 </r>
       <r>   -12.0462     0.0000     0.0000 </r>
       <r>   -11.9273     0.0000     0.0000 </r>
       <r>   -11.8085     0.0000     0.0000 </r>
       <r>   -11.6896     0.0000     0.0000 </r>
       <r>   -11.5708     0.0000     0.0000 </r>
       <r>   -11.4519     0.0000     0.0000 </r>
       <r>   -11.3331     4.5411     0.5397 </r>
       <r>   -11.2143    15.1589     3.3571 </r>
       <r>   -11.0954    24.6782     8.8218 </r>
       <r>   -10.9766    38.2437    14.9896 </r>
       <r>   -10.8577     0.0000    15.0000 </r>
       <r>   -10.7389     0.0000    15.0000 </r>
       <r>   -10.6200     0.0000    15.0000 </r>
       <r>   -10.5012     0.0000    15.0000 </r>
       <r>   -10.3823     0.0000    15.0000 </r>
       <r>   -10.2635     0.0000    15.0000 </r>
       <r>   -10.1446     0.0000    15.0000 </r>
       <r>   -10.0258     0.0000    15.0000 </r>
       <r>    -9.9069     0.0000    15.0000 </r>
       <r>    -9.7881     0.0000    15.0000 </r>
       <r>    -9.6692     0.0000    15.0000 </r>
       <r>    -9.5504     0.0000    15.0000 </r>
       <r>    -9.4315     0.0000    15.0000 </r>
       <r>    -9.3127     0.0000    15.0000 </r>
       <r>    -9.1939     0.0000    15.0000 </r>
       <r>    -9.0750     0.0000    15.0000 </r>
       <r>    -8.9562     0.0000    15.0000 </r>
       <r>    -8.8373     0.0000    15.0000 </r>
       <r>    -8.7185     0.0000    15.0000 </r>
       <r>    -8.5996     0.0000    15.0000 </r>
       <r>    -8.4808     0.0000    15.0000 </r>
       <r>    -8.3619     0.0000    15.0000 </r>
       <r>    -8.2431     0.0000    15.0000 </r>
       <r>    -8.1242     0.0000    15.0000 </r>
       <r>    -8.0054     0.0000    15.0000 </r>
       <r>    -7.8865     0.0000    15.0000 </r>
       <r>    -7.7677     0.0000    15.0000 </r>
       <r>    -7.6488     0.0000    15.0000 </r>
       <r>    -7.5300     0.0000    15.0000 </r>
       <r>    -7.4112     0.0000    15.0000 </r>
       <r>    -7.2923     0.0000    15.0000 </r>
       <r>    -7.1735     0.0000    15.0000 </r>
       <r>    -7.0546     0.0000    15.0000 </r>
       <r>    -6.9358     0.0000    15.0000 </r>
       <r>    -6.8169     0.0000    15.0000 </r>
       <r>    -6.6981     0.0000    15.0000 </r>
       <r>    -6.5792     0.0000    15.0000 </r>
       <r>    -6.4604     0.0000    15.0000 </r>
       <r>    -6.3415     0.0000    15.0000 </r>
       <r>    -6.2227     0.0000    15.0000 </r>
       <r>    -6.1038     0.0000    15.0000 </r>
       <r>    -5.9850     0.0000    15.0000 </r>
       <r>    -5.8661     0.0000    15.0000 </r>
       <r>    -5.7473     0.0000    15.0000 </r>
       <r>    -5.6284     0.0000    15.0000 </r>
       <r>    -5.5096     0.0000    15.0000 </r>
       <r>    -5.3908     0.0000    15.0000 </r>
       <r>    -5.2719     0.0000    15.0000 </r>
       <r>    -5.1531     0.0000    15.0000 </r>
       <r>    -5.0342     0.0000    15.0000 </r>
       <r>    -4.9154     0.0000    15.0000 </r>
       <r>    -4.7965     0.0000    15.0000 </r>
       <r>    -4.6777     0.0000    15.0000 </r>
       <r>    -4.5588     0.0000    15.0000 </r>
       <r>    -4.4400     0.0000    15.0000 </r>
       <r>    -4.3211     0.0000    15.0000 </r>
       <r>    -4.2023     0.0000    15.0000 </r>
       <r>    -4.0834     0.0000    15.0000 </r>
       <r>    -3.9646     0.0000    15.0000 </r>
       <r>    -3.8457     0.0000    15.0000 </r>
       <r>    -3.7269     0.0000    15.0000 </r>
       <r>    -3.6080     0.0000    15.0000 </r>
       <r>    -3.4892     0.0000    15.0000 </r>
       <r>    -3.3704     0.0000    15.0000 </r>
       <r>    -3.2515     0.0000    15.0000 </r>
       <r>    -3.1327     0.0000    15.0000 </r>
       <r>    -3.0138     0.0000    15.0000 </r>
       <r>    -2.8950     0.0000    15.0000 </r>
       <r>    -2.7761     0.0000    15.0000 </r>
       <r>    -2.6573     0.0000    15.0000 </r>
       <r>    -2.5384     0.0000    15.0000 </r>
       <r>    -2.4196     0.0000    15.0000 </r>
       <r>    -2.3007     0.0000    15.0000 </r>
       <r>    -2.1819     0.0000    15.0000 </r>
       <r>    -2.0630     0.0000    15.0000 </r>
       <r>    -1.9442     0.0000    15.0000 </r>
       <r>    -1.8253     0.0000    15.0000 </r>
       <r>    -1.7065     0.0000    15.0000 </r>
       <r>    -1.5876     0.0000    15.0000 </r>
       <r>    -1.4688     0.0000    15.0000 </r>
       <r>    -1.3500     0.0000    15.0000 </r>
       <r>    -1.2311     0.0000    15.0000 </r>
       <r>    -1.1123     0.0000    15.0000 </r>
       <r>    -0.9934     0.0000    15.0000 </r>
       <r>    -0.8746     0.0000    15.0000 </r>
       <r>    -0.7557     0.9349    15.1111 </r>
       <r>    -0.6369     0.0000    15.1111 </r>
       <r>    -0.5180     0.0000    15.1111 </r>
       <r>    -0.3992     0.0000    15.1111 </r>
       <r>    -0.2803     0.0000    15.1111 </r>
       <r>    -0.1615     0.0000    15.1111 </r>
       <r>    -0.0426     0.0000    15.1111 </r>
       <r>     0.0762     5.6095    15.7778 </r>
       <r>     0.1951     0.0000    15.7778 </r>
       <r>     0.3139     0.0000    15.7778 </r>
       <r>     0.4327     0.0000    15.7778 </r>
       <r>     0.5516     0.0000    15.7778 </r>
       <r>     0.6704     0.0000    15.7778 </r>
       <r>     0.7893     0.0000    15.7778 </r>
       <r>     0.9081     0.0000    15.7778 </r>
       <r>     1.0270     0.0000    15.7778 </r>
       <r>     1.1458     0.0000    15.7778 </r>
       <r>     1.2647     0.0000    15.7778 </r>
       <r>     1.3835     0.4160    15.8272 </r>
       <r>     1.5024     0.0000    16.2222 </r>
       <r>     1.6212     0.0000    16.2222 </r>
       <r>     1.7401     0.0000    16.2222 </r>
       <r>     1.8589     0.0000    16.2222 </r>
       <r>     1.9778     0.0000    16.2222 </r>
       <r>     2.0966     1.8697    16.4444 </r>
       <r>     2.2155     0.0000    16.4444 </r>
       <r>     2.3343     5.6094    17.1111 </r>
       <r>     2.4531     0.0000    17.1111 </r>
       <r>     2.5720     0.0000    17.1111 </r>
       <r>     2.6908     0.0000    17.1111 </r>
       <r>     2.8097     0.8591    17.2132 </r>
       <r>     2.9285     0.0000    17.2222 </r>
       <r>     3.0474     0.0000    17.2222 </r>
       <r>     3.1662     0.0000    17.2222 </r>
       <r>     3.2851     0.0009    17.2223 </r>
       <r>     3.4039     0.0000    17.8889 </r>
       <r>     3.5228     0.0000    17.8889 </r>
       <r>     3.6416     0.0000    17.8889 </r>
       <r>     3.7605     0.0000    17.8889 </r>
       <r>     3.8793     0.0000    17.8889 </r>
       <r>     3.9982     0.0000    17.8889 </r>
       <r>     4.1170     0.0000    17.8889 </r>
       <r>     4.2359     0.0000    17.8889 </r>
       <r>     4.3547     0.0000    17.8889 </r>
       <r>     4.4735     0.0000    17.8889 </r>
       <r>     4.5924     0.0000    17.8889 </r>
       <r>     4.7112     0.9349    18.0000 </r>
       <r>     4.8301     0.0000    18.0000 </r>
       <r>     4.9489     0.0000    18.0000 </r>
       <r>     5.0678     0.0000    18.0000 </r>
       <r>     5.1866     0.0000    18.0000 </r>
       <r>     5.3055     0.0000    18.0000 </r>
       <r>     5.4243     0.0000    18.0000 </r>
       <r>     5.5432     0.0000    18.6667 </r>
       <r>     5.6620     0.0001    18.6667 </r>
       <r>     5.7809     0.9348    19.4444 </r>
       <r>     5.8997     3.6195    19.8746 </r>
       <r>     6.0186     0.0000    19.8889 </r>
       <r>     6.1374     1.8698    20.1111 </r>
       <r>     6.2563     0.0000    20.1111 </r>
       <r>     6.3751     0.0000    20.1111 </r>
       <r>     6.4939     0.0000    20.1111 </r>
       <r>     6.6128     0.6683    20.1905 </r>
       <r>     6.7316     5.5597    20.9941 </r>
       <r>     6.8505     0.0000    21.0000 </r>
       <r>     6.9693     0.0000    21.0000 </r>
       <r>     7.0882     0.0000    21.0000 </r>
       <r>     7.2070     5.4264    21.6449 </r>
       <r>     7.3259     0.0000    21.6667 </r>
       <r>     7.4447     0.0000    21.6667 </r>
       <r>     7.5636     5.6093    22.8889 </r>
       <r>     7.6824     1.8698    23.1111 </r>
       <r>     7.8013     0.0000    23.1111 </r>
       <r>     7.9201     0.0000    23.1111 </r>
       <r>     8.0390     0.0000    23.7778 </r>
       <r>     8.1578     1.8697    24.5555 </r>
       <r>     8.2766     1.8698    25.4444 </r>
       <r>     8.3955     5.6389    26.1146 </r>
       <r>     8.5143     6.4011    27.0941 </r>
       <r>     8.6332     0.0009    27.6668 </r>
       <r>     8.7520     0.0000    27.8889 </r>
       <r>     8.8709     0.0000    28.5556 </r>
       <r>     8.9897     3.7396    29.0000 </r>
       <r>     9.1086     0.0000    29.0000 </r>
       <r>     9.2274     0.0000    29.0000 </r>
       <r>     9.3463     9.3489    30.1111 </r>
       <r>     9.4651     1.8693    30.3333 </r>
       <r>     9.5840     0.0000    30.3333 </r>
       <r>     9.7028     1.3769    30.4970 </r>
       <r>     9.8217     7.4793    32.8889 </r>
       <r>     9.9405     5.6095    33.5556 </r>
       <r>    10.0594     1.8698    33.7778 </r>
       <r>    10.1782     3.7396    34.2222 </r>
       <r>    10.2970     0.0000    34.2222 </r>
       <r>    10.4159     6.7949    35.0298 </r>
       <r>    10.5347     0.0000    35.1111 </r>
       <r>    10.6536     1.6374    35.3057 </r>
       <r>    10.7724     1.8698    36.2222 </r>
       <r>    10.8913     0.0000    36.2222 </r>
       <r>    11.0101     0.0000    36.2222 </r>
       <r>    11.1290     0.0000    36.2222 </r>
       <r>    11.2478     0.0000    36.2222 </r>
       <r>    11.3667     0.0000    36.2222 </r>
       <r>    11.4855     0.0000    36.2222 </r>
       <r>    11.6044     5.6095    36.8889 </r>
       <r>    11.7232     3.4836    37.3029 </r>
       <r>    11.8421     0.0000    37.5556 </r>
       <r>    11.9609     0.0000    37.7778 </r>
       <r>    12.0798     0.0000    37.7778 </r>
       <r>    12.1986     3.7396    38.2222 </r>
       <r>    12.3174     0.0000    38.2222 </r>
       <r>    12.4363     0.0928    38.2332 </r>
       <r>    12.5551     0.0000    39.0000 </r>
       <r>    12.6740     0.0000    39.0000 </r>
       <r>    12.7928     0.0000    39.0000 </r>
       <r>    12.9117     0.0000    39.0000 </r>
       <r>    13.0305     0.0000    39.0000 </r>
       <r>    13.1494     0.0000    39.0000 </r>
       <r>    13.2682     0.9349    39.1111 </r>
       <r>    13.3871     0.0000    39.1111 </r>
       <r>    13.5059     0.0000    39.1111 </r>
       <r>    13.6248     0.0000    39.1111 </r>
       <r>    13.7436     0.0000    39.1111 </r>
       <r>    13.8625     0.0000    39.1111 </r>
       <r>    13.9813     0.0000    39.1111 </r>
       <r>    14.1002     0.0000    39.1111 </r>
       <r>    14.2190     7.4603    39.9977 </r>
       <r>    14.3378     0.0000    40.0000 </r>
       <r>    14.4567     5.6095    40.6667 </r>
       <r>    14.5755     0.0000    40.6667 </r>
       <r>    14.6944     0.0000    40.6667 </r>
       <r>    14.8132     0.0000    40.6667 </r>
       <r>    14.9321     0.0000    40.6667 </r>
       <r>    15.0509     0.5512    40.7322 </r>
       <r>    15.1698     0.0000    40.8889 </r>
       <r>    15.2886     0.0000    40.8889 </r>
       <r>    15.4075     5.6095    41.5556 </r>
       <r>    15.5263     0.0050    41.5561 </r>
       <r>    15.6452     0.0000    42.0000 </r>
       <r>    15.7640     0.0000    42.0000 </r>
       <r>    15.8829     0.0000    42.1111 </r>
       <r>    16.0017     1.8698    42.3333 </r>
       <r>    16.1205     0.0000    42.3333 </r>
       <r>    16.2394     0.0000    42.3333 </r>
       <r>    16.3582     0.0000    42.3333 </r>
       <r>    16.4771     0.2861    42.3673 </r>
       <r>    16.5959     0.0000    43.0000 </r>
       <r>    16.7148     0.0000    43.0000 </r>
       <r>    16.8336     0.0000    43.0000 </r>
       <r>    16.9525     2.0486    43.2435 </r>
       <r>    17.0713     0.0000    43.6667 </r>
       <r>    17.1902     1.8698    43.8889 </r>
       <r>    17.3090     0.0000    43.8889 </r>
       <r>    17.4279     0.0000    43.8889 </r>
       <r>    17.5467     3.7396    44.3333 </r>
       <r>    17.6656     1.8698    44.5556 </r>
       <r>    17.7844     5.4808    45.2069 </r>
       <r>    17.9033     0.0000    45.2222 </r>
       <r>    18.0221     0.0000    45.2222 </r>
       <r>    18.1409     0.0290    45.2257 </r>
       <r>    18.2598     0.0000    45.8889 </r>
       <r>    18.3786     0.0000    45.8889 </r>
       <r>    18.4975     0.2494    45.9185 </r>
       <r>    18.6163     0.0000    46.5556 </r>
       <r>    18.7352     0.0000    46.5556 </r>
       <r>    18.8540     0.0000    46.5556 </r>
       <r>    18.9729     0.0000    46.5556 </r>
       <r>    19.0917     0.0000    46.5556 </r>
       <r>    19.2106     0.2571    46.5861 </r>
       <r>    19.3294     0.0000    47.0000 </r>
       <r>    19.4483     0.0000    47.0000 </r>
       <r>    19.5671     5.6095    47.6667 </r>
       <r>    19.6860     0.0000    47.6667 </r>
       <r>    19.8048     0.0000    47.6667 </r>
       <r>    19.9237     0.0000    47.6667 </r>
       <r>    20.0425     0.0000    47.6667 </r>
       <r>    20.1613     0.0000    47.6667 </r>
       <r>    20.2802     0.0000    47.6667 </r>
       <r>    20.3990     0.0000    47.6667 </r>
       <r>    20.5179     0.0000    47.6667 </r>
       <r>    20.6367     0.0000    47.6667 </r>
       <r>    20.7556     0.0000    47.6667 </r>
       <r>    20.8744     0.0000    47.6667 </r>
       <r>    20.9933     1.6934    47.8679 </r>
       <r>    21.1121     0.9349    48.0000 </r>
       <r>    21.2310     0.0000    48.0000 </r>
       <r>    21.3498     0.0000    48.0000 </r>
       <r>    21.4687     0.0000    48.0000 </r>
       <r>    21.5875     0.0000    48.0000 </r>
       <r>    21.7064     0.0000    48.0000 </r>
       <r>    21.8252     0.0000    48.0000 </r>
       <r>    21.9441     0.0000    48.0000 </r>
       <r>    22.0629     0.0000    48.0000 </r>
       <r>    22.1817     0.0000    48.0000 </r>
       <r>    22.3006     0.0000    48.0000 </r>
       <r>    22.4194     0.0000    48.0000 </r>
       <r>    22.5383     0.0000    48.0000 </r>
       <r>    22.6571     0.0000    48.0000 </r>
      </set>
     </set>
    </array>
   </total>
   <partial>
    <array>
     <dimension dim="1">gridpoints</dimension>
     <dimension dim="2">spin</dimension>
     <dimension dim="3">ion</dimension>
     <field>energy</field>
     <field>    s</field>
     <field>   py</field>
     <field>   pz</field>
     <field>   px</field>
     <field>  dxy</field>
     <field>  dyz</field>
     <field>  dz2</field>
     <field>  dxz</field>
     <field>x2-y2</field>
     <set>
      <set comment="ion 1">
       <set comment="spin 1">
        <r>   -12.9970     0.0000     0.0000     0.0000     0.0000     0.0000     0.0000     0.0000     0.0000     0.0000 </r>
        <r>   -12.8781     0.0000     0.0000     0.0000     0.0000     0.0000     0.0000     0.0000     0.0000     0.0000 </r>
        <r>   -12.7593     0.0000     0.0000     0.0000     0.0000     0.0000     0.0000     0.0000     0.0000     0.0000 </r>
        <r>   -12.6404     0.0000     0.0000     0.0000     0.0000     0.0000     0.0000     0.0000     0.0000     0.0000 </r>
        <r>   -12.5216     0.0000     0.0000     0.0000     0.0000     0.0000     0.0000     0.0000     0.0000     0.0000 </r>
        <r>   -12.4027     0.0000     0.0000     0.0000     0.0000     0.0000     0.0000     0.0000     0.0000     0.0000 </r>
        <r>   -12.2839     0.0000     0.0000     0.0000     0.0000     0.0000     0.0000     0.0000     0.0000     0.0000 </r>
        <r>   -12.1650     0.0000     0.0000     0.0000     0.0000     0.0000     0.0000     0.0000     0.0000     0.0000 </r>
        <r>   -12.0462     0.0000     0.0000     0.0000     0.0000     0.0000     0.0000     0.0000     0.0000     0.0000 </r>
        <r>   -11.9273     0.0000     0.0000     0.0000     0.0000     0.0000     0.0000     0.0000     0.0000     0.0000 </r>
        <r>   -11.8085     0.0000     0.0000     0.0000     0.0000     0.0000     0.0000     0.0000     0.0000     0.0000 </r>
        <r>   -11.6896     0.0000     0.0000     0.0000     0.0000     0.0000     0.0000     0.0000     0.0000     0.0000 </r>
        <r>   -11.5708     0.0000     0.0000     0.0000     0.0000     0.0000     0.0000     0.0000     0.0000     0.0000 </r>
        <r>   -11.4519     0.0000     0.0000     0.0000     0.0000     0.0000     0.0000     0.0000     0.0000     0.0000 </r>
        <r>   -11.3331     0.0004     0.0000     0.0004     0.0000     0.0000     0.0001     0.0005     0.0001     0.0000 </r>
        <r>   -11.2143     0.0021     0.0015     0.0005     0.0009     0.0006     0.0003     0.0011     0.0003     0.0004 </r>
        <r>   -11.0954     0.0082     0.0007     0.0059     0.0006     0.0006     0.0008     0.0029     0.0011     0.0006 </r>
        <r>   -10.9766     0.0060     0.0049     0.0021     0.0047     0.0033     0.0020     0.0015     0.0033     0.0024 </r>
        <r>   -10.8577     0.0000     0.0000     0.0000     0.0000     0.0000     0.0000     0.0000     0.0000     0.0000 </r>
        <r>   -10.7389     0.0000     0.0000     0.0000     0.0000     0.0000     0.0000     0.0000     0.0000     0.0000 </r>
        <r>   -10.6200     0.0000     0.0000     0.0000     0.0000     0.0000     0.0000     0.0000     0.0000     0.0000 </r>
        <r>   -10.5012     0.0000     0.0000     0.0000     0.0000     0.0000     0.0000     0.0000     0.0000     0.0000 </r>
        <r>   -10.3823     0.0000     0.0000     0.0000     0.0000     0.0000     0.0000     0.0000     0.0000     0.0000 </r>
        <r>   -10.2635     0.0000     0.0000     0.0000     0.0000     0.0000     0.0000     0.0000     0.0000     0.0000 </r>
        <r>   -10.1446     0.0000     0.0000     0.0000     0.0000     0.0000     0.0000     0.0000     0.0000     0.0000 </r>
        <r>   -10.0258     0.0000     0.0000     0.0000     0.0000     0.0000     0.0000     0.0000     0.0000     0.0000 </r>
        <r>    -9.9069     0.0000     0.0000     0.0000     0.0000     0.0000     0.0000     0.0000     0.0000     0.0000 </r>
        <r>    -9.7881     0.0000     0.0000     0.0000     0.0000     0.0000     0.0000     0.0000     0.0000     0.0000 </r>
        <r>    -9.6692     0.0000     0.0000     0.0000     0.0000     0.0000     0.0000     0.0000     0.0000     0.0000 </r>
        <r>    -9.5504     0.0000     0.0000     0.0000     0.0000     0.0000     0.0000     0.0000     0.0000     0.0000 </r>
        <r>    -9.4315     0.0000     0.0000     0.0000     0.0000     0.0000     0.0000     0.0000     0.0000     0.0000 </r>
        <r>    -9.3127     0.0000     0.0000     0.0000     0.0000     0.0000     0.0000     0.0000     0.0000     0.0000 </r>
        <r>    -9.1939     0.0000     0.0000     0.0000     0.0000     0.0000     0.0000     0.0000     0.0000     0.0000 </r>
        <r>    -9.0750     0.0000     0.0000     0.0000     0.0000     0.0000     0.0000     0.0000     0.0000     0.0000 </r>
        <r>    -8.9562     0.0000     0.0000     0.0000     0.0000     0.0000     0.0000     0.0000     0.0000     0.0000 </r>
        <r>    -8.8373     0.0000     0.0000     0.0000     0.0000     0.0000     0.0000     0.0000     0.0000     0.0000 </r>
        <r>    -8.7185     0.0000     0.0000     0.0000     0.0000     0.0000     0.0000     0.0000     0.0000     0.0000 </r>
        <r>    -8.5996     0.0000     0.0000     0.0000     0.0000     0.0000     0.0000     0.0000     0.0000     0.0000 </r>
        <r>    -8.4808     0.0000     0.0000     0.0000     0.0000     0.0000     0.0000     0.0000     0.0000     0.0000 </r>
        <r>    -8.3619     0.0000     0.0000     0.0000     0.0000     0.0000     0.0000     0.0000     0.0000     0.0000 </r>
        <r>    -8.2431     0.0000     0.0000     0.0000     0.0000     0.0000     0.0000     0.0000     0.0000     0.0000 </r>
        <r>    -8.1242     0.0000     0.0000     0.0000     0.0000     0.0000     0.0000     0.0000     0.0000     0.0000 </r>
        <r>    -8.0054     0.0000     0.0000     0.0000     0.0000     0.0000     0.0000     0.0000     0.0000     0.0000 </r>
        <r>    -7.8865     0.0000     0.0000     0.0000     0.0000     0.0000     0.0000     0.0000     0.0000     0.0000 </r>
        <r>    -7.7677     0.0000     0.0000     0.0000     0.0000     0.0000     0.0000     0.0000     0.0000     0.0000 </r>
        <r>    -7.6488     0.0000     0.0000     0.0000     0.0000     0.0000     0.0000     0.0000     0.0000     0.0000 </r>
        <r>    -7.5300     0.0000     0.0000     0.0000     0.0000     0.0000     0.0000     0.0000     0.0000     0.0000 </r>
        <r>    -7.4112     0.0000     0.0000     0.0000     0.0000     0.0000     0.0000     0.0000     0.0000     0.0000 </r>
        <r>    -7.2923     0.0000     0.0000     0.0000     0.0000     0.0000     0.0000     0.0000     0.0000     0.0000 </r>
        <r>    -7.1735     0.0000     0.0000     0.0000     0.0000     0.0000     0.0000     0.0000     0.0000     0.0000 </r>
        <r>    -7.0546     0.0000     0.0000     0.0000     0.0000     0.0000     0.0000     0.0000     0.0000     0.0000 </r>
        <r>    -6.9358     0.0000     0.0000     0.0000     0.0000     0.0000     0.0000     0.0000     0.0000     0.0000 </r>
        <r>    -6.8169     0.0000     0.0000     0.0000     0.0000     0.0000     0.0000     0.0000     0.0000     0.0000 </r>
        <r>    -6.6981     0.0000     0.0000     0.0000     0.0000     0.0000     0.0000     0.0000     0.0000     0.0000 </r>
        <r>    -6.5792     0.0000     0.0000     0.0000     0.0000     0.0000     0.0000     0.0000     0.0000     0.0000 </r>
        <r>    -6.4604     0.0000     0.0000     0.0000     0.0000     0.0000     0.0000     0.0000     0.0000     0.0000 </r>
        <r>    -6.3415     0.0000     0.0000     0.0000     0.0000     0.0000     0.0000     0.0000     0.0000     0.0000 </r>
        <r>    -6.2227     0.0000     0.0000     0.0000     0.0000     0.0000     0.0000     0.0000     0.0000     0.0000 </r>
        <r>    -6.1038     0.0000     0.0000     0.0000     0.0000     0.0000     0.0000     0.0000     0.0000     0.0000 </r>
        <r>    -5.9850     0.0000     0.0000     0.0000     0.0000     0.0000     0.0000     0.0000     0.0000     0.0000 </r>
        <r>    -5.8661     0.0000     0.0000     0.0000     0.0000     0.0000     0.0000     0.0000     0.0000     0.0000 </r>
        <r>    -5.7473     0.0000     0.0000     0.0000     0.0000     0.0000     0.0000     0.0000     0.0000     0.0000 </r>
        <r>    -5.6284     0.0000     0.0000     0.0000     0.0000     0.0000     0.0000     0.0000     0.0000     0.0000 </r>
        <r>    -5.5096     0.0000     0.0000     0.0000     0.0000     0.0000     0.0000     0.0000     0.0000     0.0000 </r>
        <r>    -5.3908     0.0000     0.0000     0.0000     0.0000     0.0000     0.0000     0.0000     0.0000     0.0000 </r>
        <r>    -5.2719     0.0000     0.0000     0.0000     0.0000     0.0000     0.0000     0.0000     0.0000     0.0000 </r>
        <r>    -5.1531     0.0000     0.0000     0.0000     0.0000     0.0000     0.0000     0.0000     0.0000     0.0000 </r>
        <r>    -5.0342     0.0000     0.0000     0.0000     0.0000     0.0000     0.0000     0.0000     0.0000     0.0000 </r>
        <r>    -4.9154     0.0000     0.0000     0.0000     0.0000     0.0000     0.0000     0.0000     0.0000     0.0000 </r>
        <r>    -4.7965     0.0000     0.0000     0.0000     0.0000     0.0000     0.0000     0.0000     0.0000     0.0000 </r>
        <r>    -4.6777     0.0000     0.0000     0.0000     0.0000     0.0000     0.0000     0.0000     0.0000     0.0000 </r>
        <r>    -4.5588     0.0000     0.0000     0.0000     0.0000     0.0000     0.0000     0.0000     0.0000     0.0000 </r>
        <r>    -4.4400     0.0000     0.0000     0.0000     0.0000     0.0000     0.0000     0.0000     0.0000     0.0000 </r>
        <r>    -4.3211     0.0000     0.0000     0.0000     0.0000     0.0000     0.0000     0.0000     0.0000     0.0000 </r>
        <r>    -4.2023     0.0000     0.0000     0.0000     0.0000     0.0000     0.0000     0.0000     0.0000     0.0000 </r>
        <r>    -4.0834     0.0000     0.0000     0.0000     0.0000     0.0000     0.0000     0.0000     0.0000     0.0000 </r>
        <r>    -3.9646     0.0000     0.0000     0.0000     0.0000     0.0000     0.0000     0.0000     0.0000     0.0000 </r>
        <r>    -3.8457     0.0000     0.0000     0.0000     0.0000     0.0000     0.0000     0.0000     0.0000     0.0000 </r>
        <r>    -3.7269     0.0000     0.0000     0.0000     0.0000     0.0000     0.0000     0.0000     0.0000     0.0000 </r>
        <r>    -3.6080     0.0000     0.0000     0.0000     0.0000     0.0000     0.0000     0.0000     0.0000     0.0000 </r>
        <r>    -3.4892     0.0000     0.0000     0.0000     0.0000     0.0000     0.0000     0.0000     0.0000     0.0000 </r>
        <r>    -3.3704     0.0000     0.0000     0.0000     0.0000     0.0000     0.0000     0.0000     0.0000     0.0000 </r>
        <r>    -3.2515     0.0000     0.0000     0.0000     0.0000     0.0000     0.0000     0.0000     0.0000     0.0000 </r>
        <r>    -3.1327     0.0000     0.0000     0.0000     0.0000     0.0000     0.0000     0.0000     0.0000     0.0000 </r>
        <r>    -3.0138     0.0000     0.0000     0.0000     0.0000     0.0000     0.0000     0.0000     0.0000     0.0000 </r>
        <r>    -2.8950     0.0000     0.0000     0.0000     0.0000     0.0000     0.0000     0.0000     0.0000     0.0000 </r>
[...]
        <r>  0.0524  0.0000  0.0114  0.0042  0.0004  0.0002  0.0031  0.0022  0.0009 </r>
        <r>  0.2361  0.0101  0.0025  0.0101  0.0011  0.0002  0.0002  0.0002  0.0011 </r>
        <r>  0.2361  0.0101  0.0025  0.0101  0.0011  0.0002  0.0002  0.0002  0.0011 </r>
        <r>  0.0000  0.0161  0.0000  0.0000  0.0008  0.0013  0.0000  0.0000  0.0000 </r>
       </set>
       <set comment="band 17">
        <r>  0.0175  0.0042  0.0038  0.0066  0.0009  0.0022  0.0010  0.0046  0.0002 </r>
        <r>  0.0699  0.0000  0.0152  0.0009  0.0000  0.0000  0.0042  0.0002  0.0013 </r>
        <r>  0.0175  0.0042  0.0038  0.0066  0.0009  0.0022  0.0010  0.0046  0.0002 </r>
        <r>  0.2361  0.0101  0.0025  0.0101  0.0011  0.0002  0.0002  0.0002  0.0011 </r>
        <r>  0.2361  0.0101  0.0025  0.0101  0.0011  0.0002  0.0002  0.0002  0.0011 </r>
        <r>  0.0000  0.0000  0.0000  0.0161  0.0000  0.0000  0.0000  0.0013  0.0008 </r>
       </set>
       <set comment="band 18">
        <r>  0.0140  0.0166  0.0006  0.0055  0.0034  0.0005  0.0001  0.0002  0.0011 </r>
        <r>  0.0140  0.0000  0.0006  0.0221  0.0000  0.0000  0.0001  0.0007  0.0046 </r>
        <r>  0.0140  0.0166  0.0006  0.0055  0.0034  0.0005  0.0001  0.0002  0.0011 </r>
        <r>  0.0000  0.0114  0.0000  0.0114  0.0002  0.0008  0.0000  0.0008  0.0002 </r>
        <r>  0.0000  0.0114  0.0000  0.0114  0.0002  0.0008  0.0000  0.0008  0.0002 </r>
        <r>  0.4865  0.0000  0.0036  0.0000  0.0000  0.0000  0.0004  0.0000  0.0000 </r>
       </set>
       <set comment="band 19">
        <r>  0.0759  0.0010  0.0192  0.0084  0.0024  0.0064  0.0196  0.0182  0.0025 </r>
        <r>  0.0000  0.0161  0.0000  0.0000  0.0185  0.0983  0.0000  0.0000  0.0000 </r>
        <r>  0.0759  0.0010  0.0192  0.0084  0.0024  0.0064  0.0196  0.0182  0.0025 </r>
        <r>  0.0327  0.0000  0.0792  0.0000  0.0003  0.0009  0.0003  0.0009  0.0003 </r>
        <r>  0.0327  0.0000  0.0792  0.0000  0.0003  0.0009  0.0003  0.0009  0.0003 </r>
        <r>  0.0000  0.0848  0.0000  0.0000  0.0007  0.0015  0.0000  0.0000  0.0000 </r>
       </set>
       <set comment="band 20">
        <r>  0.0253  0.0084  0.0064  0.0055  0.0025  0.0182  0.0065  0.0556  0.0114 </r>
        <r>  0.1012  0.0000  0.0256  0.0072  0.0000  0.0000  0.0261  0.0000  0.0004 </r>
        <r>  0.0253  0.0084  0.0064  0.0055  0.0025  0.0182  0.0065  0.0556  0.0114 </r>
        <r>  0.0327  0.0000  0.0792  0.0000  0.0003  0.0009  0.0003  0.0009  0.0003 </r>
        <r>  0.0327  0.0000  0.0792  0.0000  0.0003  0.0009  0.0003  0.0009  0.0003 </r>
        <r>  0.0000  0.0000  0.0000  0.0848  0.0000  0.0000  0.0000  0.0015  0.0007 </r>
       </set>
       <set comment="band 21">
        <r>  0.0018  0.0016  0.0092  0.0005  0.0026  0.0324  0.0298  0.0108  0.0009 </r>
        <r>  0.0018  0.0000  0.0092  0.0022  0.0000  0.0000  0.0298  0.0431  0.0035 </r>
        <r>  0.0018  0.0016  0.0092  0.0005  0.0026  0.0324  0.0298  0.0108  0.0009 </r>
        <r>  0.0000  0.0565  0.0000  0.0565  0.0002  0.0005  0.0000  0.0005  0.0002 </r>
        <r>  0.0000  0.0565  0.0000  0.0565  0.0002  0.0005  0.0000  0.0005  0.0002 </r>
        <r>  0.0936  0.0000  0.0609  0.0000  0.0000  0.0000  0.0016  0.0000  0.0000 </r>
       </set>
       <set comment="band 22">
        <r>  0.0001  0.0156  0.0037  0.0003  0.2126  0.0001  0.0177  0.0074  0.0177 </r>
        <r>  0.0000  0.0247  0.0000  0.0000  0.0533  0.0247  0.0000  0.0000  0.0000 </r>
        <r>  0.0001  0.0156  0.0037  0.0003  0.2126  0.0001  0.0177  0.0074  0.0177 </r>
        <r>  0.0035  0.0019  0.0357  0.0019  0.0004  0.0000  0.0015  0.0000  0.0004 </r>
        <r>  0.0035  0.0019  0.0357  0.0019  0.0004  0.0000  0.0015  0.0000  0.0004 </r>
        <r>  0.0000  0.1005  0.0000  0.0000  0.0004  0.0008  0.0000  0.0000  0.0000 </r>
       </set>
       <set comment="band 23">
        <r>  0.0000  0.0003  0.0012  0.0214  0.0177  0.0074  0.0059  0.0116  0.0946 </r>
        <r>  0.0001  0.0000  0.0049  0.0131  0.0000  0.0000  0.0236  0.0017  0.2892 </r>
        <r>  0.0000  0.0003  0.0012  0.0214  0.0177  0.0074  0.0059  0.0116  0.0946 </r>
        <r>  0.0035  0.0019  0.0357  0.0019  0.0004  0.0000  0.0015  0.0000  0.0004 </r>
        <r>  0.0035  0.0019  0.0357  0.0019  0.0004  0.0000  0.0015  0.0000  0.0004 </r>
        <r>  0.0000  0.0000  0.0000  0.1005  0.0000  0.0000  0.0000  0.0008  0.0004 </r>
       </set>
       <set comment="band 24">
        <r>  0.0008  0.0029  0.0001  0.0091  0.0052  0.0039  0.0637  0.1235  0.0006 </r>
        <r>  0.0033  0.0000  0.0003  0.0000  0.0000  0.0000  0.2550  0.0591  0.0223 </r>
        <r>  0.0008  0.0029  0.0001  0.0091  0.0052  0.0039  0.0637  0.1235  0.0006 </r>
        <r>  0.0013  0.0198  0.0022  0.0198  0.0000  0.0001  0.0079  0.0001  0.0000 </r>
        <r>  0.0013  0.0198  0.0022  0.0198  0.0000  0.0001  0.0079  0.0001  0.0000 </r>
        <r>  0.0000  0.0000  0.0000  0.0032  0.0000  0.0000  0.0000  0.0011  0.0010 </r>
       </set>
       <set comment="band 25">
        <r>  0.0025  0.0011  0.0002  0.0029  0.0116  0.0780  0.1912  0.0039  0.0052 </r>
        <r>  0.0000  0.0160  0.0000  0.0000  0.0003  0.1502  0.0000  0.0000  0.0000 </r>
        <r>  0.0025  0.0011  0.0002  0.0029  0.0116  0.0780  0.1912  0.0039  0.0052 </r>
        <r>  0.0013  0.0198  0.0022  0.0198  0.0000  0.0001  0.0079  0.0001  0.0000 </r>
        <r>  0.0013  0.0198  0.0022  0.0198  0.0000  0.0001  0.0079  0.0001  0.0000 </r>
        <r>  0.0000  0.0032  0.0000  0.0000  0.0010  0.0011  0.0000  0.0000  0.0000 </r>
       </set>
       <set comment="band 26">
        <r>  0.0000  0.0016  0.0000  0.0047  0.0717  0.0006  0.0000  0.0017  0.2151 </r>
        <r>  0.0000  0.0063  0.0000  0.0000  0.2870  0.0022  0.0000  0.0000  0.0000 </r>
        <r>  0.0000  0.0016  0.0000  0.0047  0.0717  0.0006  0.0000  0.0017  0.2151 </r>
        <r>  0.0000  0.0026  0.0000  0.0027  0.0002  0.0007  0.0000  0.0007  0.0002 </r>
        <r>  0.0000  0.0026  0.0000  0.0027  0.0002  0.0007  0.0000  0.0007  0.0002 </r>
        <r>  0.0000  0.0000  0.0000  0.0000  0.0000  0.0000  0.0000  0.0000  0.0000 </r>
       </set>
       <set comment="band 27">
        <r>  0.0099  0.0000  0.0000  0.0000  0.0008  0.0839  0.1144  0.0280  0.0003 </r>
        <r>  0.0099  0.0000  0.0000  0.0000  0.0000  0.0000  0.1145  0.1118  0.0011 </r>
        <r>  0.0099  0.0000  0.0000  0.0000  0.0008  0.0839  0.1144  0.0280  0.0003 </r>
        <r>  0.0000  0.0118  0.0000  0.0118  0.0050  0.0051  0.0000  0.0051  0.0050 </r>
        <r>  0.0000  0.0118  0.0000  0.0118  0.0050  0.0051  0.0000  0.0051  0.0050 </r>
        <r>  0.0032  0.0000  0.0452  0.0000  0.0000  0.0000  0.0000  0.0000  0.0000 </r>
       </set>
       <set comment="band 28">
        <r>  0.0005  0.0001  0.0016  0.0003  0.0450  0.0529  0.0247  0.0300  0.0056 </r>
        <r>  0.0020  0.0000  0.0065  0.0013  0.0000  0.0000  0.0989  0.3266  0.0857 </r>
        <r>  0.0005  0.0001  0.0016  0.0003  0.0450  0.0529  0.0247  0.0300  0.0056 </r>
        <r>  0.0002  0.0035  0.0060  0.0035  0.0010  0.0015  0.0001  0.0015  0.0010 </r>
        <r>  0.0002  0.0035  0.0060  0.0035  0.0010  0.0015  0.0001  0.0015  0.0010 </r>
        <r>  0.0000  0.0000  0.0000  0.0024  0.0000  0.0000  0.0000  0.0047  0.0020 </r>
       </set>
       <set comment="band 29">
        <r>  0.0015  0.0008  0.0048  0.0001  0.0290  0.1925  0.0742  0.0529  0.0450 </r>
        <r>  0.0000  0.0001  0.0000  0.0000  0.0387  0.0016  0.0000  0.0000  0.0000 </r>
        <r>  0.0015  0.0008  0.0048  0.0001  0.0290  0.1925  0.0742  0.0529  0.0450 </r>
        <r>  0.0002  0.0035  0.0060  0.0035  0.0010  0.0015  0.0001  0.0015  0.0010 </r>
        <r>  0.0002  0.0035  0.0060  0.0035  0.0010  0.0015  0.0001  0.0015  0.0010 </r>
        <r>  0.0000  0.0024  0.0000  0.0000  0.0020  0.0047  0.0000  0.0000  0.0000 </r>
       </set>
       <set comment="band 30">
        <r>  0.0001  0.0091  0.0000  0.0001  0.0051  0.0476  0.0339  0.0077  0.1533 </r>
        <r>  0.0000  0.0117  0.0000  0.0000  0.3683  0.0043  0.0000  0.0000  0.0000 </r>
        <r>  0.0001  0.0091  0.0000  0.0001  0.0051  0.0476  0.0339  0.0077  0.1533 </r>
        <r>  0.0012  0.0014  0.0006  0.0014  0.0000  0.0018  0.0000  0.0018  0.0000 </r>
        <r>  0.0012  0.0014  0.0006  0.0014  0.0000  0.0018  0.0000  0.0018  0.0000 </r>
        <r>  0.0000  0.0025  0.0000  0.0000  0.0113  0.0003  0.0000  0.0000  0.0000 </r>
       </set>
       <set comment="band 31">
        <r>  0.0000  0.0001  0.0000  0.0108  0.1533  0.0078  0.0113  0.0135  0.1450 </r>
        <r>  0.0002  0.0000  0.0000  0.0083  0.0000  0.0000  0.0452  0.0725  0.0883 </r>
        <r>  0.0000  0.0001  0.0000  0.0108  0.1533  0.0078  0.0113  0.0135  0.1450 </r>
        <r>  0.0012  0.0014  0.0006  0.0014  0.0000  0.0018  0.0000  0.0018  0.0000 </r>
        <r>  0.0012  0.0014  0.0006  0.0014  0.0000  0.0018  0.0000  0.0018  0.0000 </r>
        <r>  0.0000  0.0000  0.0000  0.0025  0.0000  0.0000  0.0000  0.0003  0.0113 </r>
       </set>
       <set comment="band 32">
        <r>  0.0000  0.0000  0.0000  0.0000  0.0008  0.0767  0.0000  0.2302  0.0025 </r>
        <r>  0.0000  0.0000  0.0000  0.0000  0.0033  0.3070  0.0000  0.0000  0.0000 </r>
        <r>  0.0000  0.0000  0.0000  0.0000  0.0008  0.0767  0.0000  0.2302  0.0025 </r>
        <r>  0.0000  0.0054  0.0000  0.0054  0.0000  0.0027  0.0000  0.0027  0.0000 </r>
        <r>  0.0000  0.0054  0.0000  0.0054  0.0000  0.0027  0.0000  0.0027  0.0000 </r>
        <r>  0.0000  0.0000  0.0000  0.0000  0.0000  0.0000  0.0000  0.0000  0.0000 </r>
       </set>
       <set comment="band 33">
        <r>  0.0007  0.0014  0.0000  0.0005  0.2219  0.0054  0.0105  0.0018  0.0740 </r>
        <r>  0.0007  0.0000  0.0000  0.0018  0.0000  0.0000  0.0105  0.0070  0.2960 </r>
        <r>  0.0007  0.0014  0.0000  0.0005  0.2219  0.0054  0.0105  0.0018  0.0740 </r>
        <r>  0.0000  0.0001  0.0000  0.0001  0.0002  0.0000  0.0000  0.0000  0.0002 </r>
        <r>  0.0000  0.0001  0.0000  0.0001  0.0002  0.0000  0.0000  0.0000  0.0002 </r>
        <r>  0.0043  0.0000  0.0011  0.0000  0.0000  0.0000  0.0015  0.0000  0.0000 </r>
       </set>
       <set comment="band 34">
        <r>  0.0118  0.0001  0.0136  0.0005  0.0002  0.0190  0.0912  0.1394  0.0000 </r>
        <r>  0.0000  0.0021  0.0000  0.0000  0.0002  0.2587  0.0000  0.0000  0.0000 </r>
        <r>  0.0118  0.0001  0.0136  0.0005  0.0002  0.0190  0.0912  0.1394  0.0000 </r>
        <r>  0.0085  0.0064  0.0120  0.0064  0.0003  0.0035  0.0045  0.0035  0.0003 </r>
        <r>  0.0085  0.0064  0.0120  0.0064  0.0003  0.0035  0.0045  0.0035  0.0003 </r>
        <r>  0.0000  0.0038  0.0000  0.0000  0.0002  0.0010  0.0000  0.0000  0.0000 </r>
       </set>
       <set comment="band 35">
        <r>  0.0039  0.0005  0.0045  0.0011  0.0000  0.1393  0.0305  0.0860  0.0002 </r>
        <r>  0.0157  0.0000  0.0181  0.0000  0.0000  0.0000  0.1216  0.1250  0.0002 </r>
        <r>  0.0039  0.0005  0.0045  0.0011  0.0000  0.1393  0.0305  0.0860  0.0002 </r>
        <r>  0.0085  0.0064  0.0120  0.0064  0.0003  0.0035  0.0045  0.0035  0.0003 </r>
        <r>  0.0085  0.0064  0.0120  0.0064  0.0003  0.0035  0.0045  0.0035  0.0003 </r>
        <r>  0.0000  0.0000  0.0000  0.0038  0.0000  0.0000  0.0000  0.0010  0.0002 </r>
       </set>
       <set comment="band 36">
        <r>  0.0000  0.0003  0.0052  0.0001  0.0118  0.0878  0.1099  0.0293  0.0039 </r>
        <r>  0.0000  0.0000  0.0052  0.0004  0.0000  0.0000  0.1099  0.1171  0.0157 </r>
        <r>  0.0000  0.0003  0.0052  0.0001  0.0118  0.0878  0.1099  0.0293  0.0039 </r>
        <r>  0.0000  0.0154  0.0000  0.0154  0.0000  0.0017  0.0000  0.0017  0.0000 </r>
        <r>  0.0000  0.0154  0.0000  0.0154  0.0000  0.0017  0.0000  0.0017  0.0000 </r>
        <r>  0.0350  0.0000  0.0225  0.0000  0.0000  0.0000  0.0000  0.0000  0.0000 </r>
       </set>
       <set comment="band 37">
        <r>  0.0202  0.0022  0.0026  0.0007  0.0006  0.0240  0.0518  0.0080  0.0002 </r>
        <r>  0.0202  0.0000  0.0026  0.0029  0.0000  0.0000  0.0518  0.0321  0.0008 </r>
        <r>  0.0202  0.0022  0.0026  0.0007  0.0006  0.0240  0.0518  0.0080  0.0002 </r>
        <r>  0.0000  0.0244  0.0000  0.0244  0.0047  0.0005  0.0000  0.0005  0.0047 </r>
        <r>  0.0000  0.0244  0.0000  0.0244  0.0047  0.0005  0.0000  0.0005  0.0047 </r>
        <r>  0.0162  0.0000  0.1972  0.0000  0.0000  0.0000  0.0115  0.0000  0.0000 </r>
       </set>
       <set comment="band 38">
        <r>  0.0029  0.0180  0.0013  0.0003  0.1046  0.0267  0.0002  0.0002  0.0012 </r>
        <r>  0.0000  0.0106  0.0000  0.0000  0.1468  0.0343  0.0000  0.0000  0.0000 </r>
        <r>  0.0029  0.0180  0.0013  0.0003  0.1046  0.0267  0.0002  0.0002  0.0012 </r>
        <r>  0.0449  0.0319  0.0054  0.0319  0.0015  0.0010  0.0002  0.0010  0.0015 </r>
        <r>  0.0449  0.0319  0.0054  0.0319  0.0015  0.0010  0.0002  0.0010  0.0015 </r>
        <r>  0.0000  0.0493  0.0000  0.0000  0.0085  0.0017  0.0000  0.0000  0.0000 </r>
       </set>
       <set comment="band 39">
        <r>  0.0010  0.0003  0.0004  0.0129  0.0012  0.0002  0.0001  0.0316  0.1320 </r>
        <r>  0.0039  0.0000  0.0017  0.0210  0.0000  0.0000  0.0003  0.0244  0.0922 </r>
        <r>  0.0010  0.0003  0.0004  0.0129  0.0012  0.0002  0.0001  0.0316  0.1320 </r>
        <r>  0.0448  0.0319  0.0054  0.0319  0.0015  0.0010  0.0002  0.0010  0.0015 </r>
        <r>  0.0448  0.0319  0.0054  0.0319  0.0015  0.0010  0.0002  0.0010  0.0015 </r>
        <r>  0.0000  0.0000  0.0000  0.0493  0.0000  0.0000  0.0000  0.0017  0.0085 </r>
       </set>
       <set comment="band 40">
        <r>  0.0003  0.0197  0.0016  0.0017  0.0378  0.0261  0.0259  0.0039  0.0018 </r>
        <r>  0.0000  0.0049  0.0000  0.0000  0.0146  0.0725  0.0000  0.0000  0.0000 </r>
        <r>  0.0003  0.0197  0.0016  0.0017  0.0378  0.0261  0.0259  0.0039  0.0018 </r>
        <r>  0.0130  0.0456  0.0408  0.0456  0.0003  0.0003  0.0017  0.0003  0.0003 </r>
        <r>  0.0130  0.0456  0.0408  0.0456  0.0003  0.0003  0.0017  0.0003  0.0003 </r>
        <r>  0.0000  0.1583  0.0000  0.0000  0.0106  0.0019  0.0000  0.0000  0.0000 </r>
       </set>
       <set comment="band 41">
        <r>  0.0001  0.0017  0.0005  0.0087  0.0018  0.0039  0.0086  0.0544  0.0211 </r>
        <r>  0.0004  0.0000  0.0021  0.0269  0.0000  0.0000  0.0346  0.0158  0.0480 </r>
        <r>  0.0001  0.0017  0.0005  0.0087  0.0018  0.0039  0.0086  0.0544  0.0211 </r>
        <r>  0.0130  0.0456  0.0408  0.0456  0.0003  0.0003  0.0017  0.0003  0.0003 </r>
        <r>  0.0130  0.0456  0.0408  0.0456  0.0003  0.0003  0.0017  0.0003  0.0003 </r>
        <r>  0.0000  0.0000  0.0000  0.1583  0.0000  0.0000  0.0000  0.0019  0.0106 </r>
       </set>
       <set comment="band 42">
        <r>  0.0948  0.0078  0.0241  0.0026  0.0001  0.0001  0.0030  0.0000  0.0000 </r>
        <r>  0.0948  0.0000  0.0241  0.0104  0.0000  0.0000  0.0030  0.0002  0.0002 </r>
        <r>  0.0948  0.0078  0.0241  0.0026  0.0001  0.0001  0.0030  0.0000  0.0000 </r>
        <r>  0.0000  0.0069  0.0000  0.0069  0.0017  0.0283  0.0000  0.0283  0.0017 </r>
        <r>  0.0000  0.0069  0.0000  0.0069  0.0017  0.0283  0.0000  0.0283  0.0017 </r>
        <r>  0.0803  0.0000  0.0877  0.0000  0.0000  0.0000  0.0201  0.0000  0.0000 </r>
       </set>
       <set comment="band 43">
        <r>  0.0000  0.0036  0.0000  0.0107  0.0058  0.0040  0.0000  0.0121  0.0174 </r>
        <r>  0.0000  0.0143  0.0000  0.0000  0.0232  0.0161  0.0000  0.0000  0.0000 </r>
        <r>  0.0000  0.0036  0.0000  0.0107  0.0058  0.0040  0.0000  0.0121  0.0174 </r>
        <r>  0.0000  0.1432  0.0000  0.1431  0.0042  0.0009  0.0000  0.0009  0.0042 </r>
        <r>  0.0000  0.1432  0.0000  0.1431  0.0042  0.0009  0.0000  0.0009  0.0042 </r>
        <r>  0.0000  0.0000  0.0000  0.0000  0.0000  0.0000  0.0000  0.0000  0.0000 </r>
       </set>
       <set comment="band 44">
        <r>  0.0104  0.0007  0.0187  0.0383  0.0011  0.0033  0.0144  0.0002  0.0051 </r>
        <r>  0.0418  0.0000  0.0750  0.0222  0.0000  0.0000  0.0575  0.0071  0.0002 </r>
        <r>  0.0104  0.0007  0.0187  0.0383  0.0011  0.0033  0.0144  0.0002  0.0051 </r>
        <r>  0.0536  0.0000  0.0308  0.0000  0.0001  0.0093  0.0224  0.0093  0.0001 </r>
        <r>  0.0536  0.0000  0.0308  0.0000  0.0001  0.0093  0.0224  0.0093  0.0001 </r>
        <r>  0.0000  0.0000  0.0000  0.0043  0.0000  0.0000  0.0000  0.0271  0.0381 </r>
       </set>
       <set comment="band 45">
        <r>  0.0313  0.0271  0.0562  0.0007  0.0011  0.0026  0.0432  0.0033  0.0011 </r>
        <r>  0.0000  0.0446  0.0000  0.0000  0.0082  0.0024  0.0000  0.0000  0.0000 </r>
        <r>  0.0313  0.0271  0.0562  0.0007  0.0011  0.0026  0.0432  0.0033  0.0011 </r>
        <r>  0.0536  0.0000  0.0307  0.0000  0.0001  0.0093  0.0224  0.0093  0.0001 </r>
        <r>  0.0536  0.0000  0.0307  0.0000  0.0001  0.0093  0.0224  0.0093  0.0001 </r>
        <r>  0.0000  0.0043  0.0000  0.0000  0.0381  0.0271  0.0000  0.0000  0.0000 </r>
       </set>
       <set comment="band 46">
        <r>  0.0058  0.0005  0.0300  0.0002  0.0011  0.0029  0.0010  0.0010  0.0004 </r>
        <r>  0.0058  0.0000  0.0300  0.0007  0.0000  0.0000  0.0010  0.0038  0.0014 </r>
        <r>  0.0058  0.0005  0.0300  0.0002  0.0011  0.0029  0.0010  0.0010  0.0004 </r>
        <r>  0.0000  0.0015  0.0000  0.0015  0.0268  0.0099  0.0000  0.0099  0.0268 </r>
        <r>  0.0000  0.0015  0.0000  0.0015  0.0268  0.0099  0.0000  0.0099  0.0268 </r>
        <r>  0.0502  0.0000  0.1071  0.0000  0.0000  0.0000  0.0411  0.0000  0.0000 </r>
       </set>
       <set comment="band 47">
        <r>  0.0515  0.0011  0.0048  0.0051  0.0002  0.0105  0.0078  0.0020  0.0017 </r>
        <r>  0.0000  0.0245  0.0000  0.0000  0.0077  0.0006  0.0000  0.0000  0.0000 </r>
        <r>  0.0515  0.0011  0.0048  0.0051  0.0002  0.0105  0.0078  0.0020  0.0017 </r>
        <r>  0.0028  0.0164  0.0170  0.0163  0.0201  0.0060  0.0001  0.0060  0.0201 </r>
        <r>  0.0028  0.0164  0.0170  0.0163  0.0201  0.0060  0.0001  0.0060  0.0201 </r>
        <r>  0.0000  0.0211  0.0000  0.0000  0.0018  0.0499  0.0000  0.0000  0.0000 </r>
       </set>
       <set comment="band 48">
        <r>  0.0172  0.0051  0.0016  0.0133  0.0017  0.0020  0.0026  0.0025  0.0041 </r>
        <r>  0.0687  0.0000  0.0064  0.0001  0.0000  0.0000  0.0104  0.0165  0.0001 </r>
        <r>  0.0172  0.0051  0.0016  0.0133  0.0017  0.0020  0.0026  0.0025  0.0041 </r>
        <r>  0.0028  0.0163  0.0170  0.0163  0.0201  0.0060  0.0001  0.0060  0.0201 </r>
        <r>  0.0028  0.0163  0.0170  0.0163  0.0201  0.0060  0.0001  0.0060  0.0201 </r>
        <r>  0.0000  0.0000  0.0000  0.0211  0.0000  0.0000  0.0000  0.0499  0.0018 </r>
       </set>
      </set>
     </set>
    </set>
   </array>
  </projected>
 </calculation>
 <structure name="finalpos" >
  <crystal>
   <varray name="basis" >
    <v>       2.62301996      -4.54320385       0.00000000 </v>
    <v>       2.62301996       4.54320385       0.00000000 </v>
    <v>       0.00000000       0.00000000       4.18759030 </v>
   </varray>
   <i name="volume">     99.80631021 </i>
   <varray name="rec_basis" >
    <v>       0.19061998      -0.11005449       0.00000000 </v>
    <v>       0.19061998       0.11005449       0.00000000 </v>
    <v>       0.00000000       0.00000000       0.23880082 </v>
   </varray>
  </crystal>
  <varray name="positions" >
   <v>       0.00000000       0.50000000       0.00000000 </v>
   <v>       0.50000000       0.50000000       0.00000000 </v>
   <v>       0.50000000       0.00000000       0.00000000 </v>
   <v>       0.66666667       0.33333333       0.50000000 </v>
   <v>       0.33333333       0.66666667       0.50000000 </v>
   <v>       0.00000000       0.00000000       0.00000000 </v>
  </varray>
 </structure>
</modeling>
